+ 0.5 0 1 cbr 1000 ------- 1 0.0 1.0 0 0
- 0.5 0 1 cbr 1000 ------- 1 0.0 1.0 0 0
+ 0.505 0 1 cbr 1000 ------- 1 0.0 1.0 1 1
- 0.508 0 1 cbr 1000 ------- 1 0.0 1.0 1 1
+ 0.51 0 1 cbr 1000 ------- 1 0.0 1.0 2 2
+ 0.515 0 1 cbr 1000 ------- 1 0.0 1.0 3 3
- 0.516 0 1 cbr 1000 ------- 1 0.0 1.0 2 2
r 0.518 0 1 cbr 1000 ------- 1 0.0 1.0 0 0
+ 0.52 0 1 cbr 1000 ------- 1 0.0 1.0 4 4
- 0.524 0 1 cbr 1000 ------- 1 0.0 1.0 3 3
+ 0.525 0 1 cbr 1000 ------- 1 0.0 1.0 5 5
r 0.526 0 1 cbr 1000 ------- 1 0.0 1.0 1 1
+ 0.53 0 1 cbr 1000 ------- 1 0.0 1.0 6 6
- 0.532 0 1 cbr 1000 ------- 1 0.0 1.0 4 4
r 0.534 0 1 cbr 1000 ------- 1 0.0 1.0 2 2
+ 0.535 0 1 cbr 1000 ------- 1 0.0 1.0 7 7
- 0.54 0 1 cbr 1000 ------- 1 0.0 1.0 5 5
+ 0.54 0 1 cbr 1000 ------- 1 0.0 1.0 8 8
r 0.542 0 1 cbr 1000 ------- 1 0.0 1.0 3 3
+ 0.545 0 1 cbr 1000 ------- 1 0.0 1.0 9 9
- 0.548 0 1 cbr 1000 ------- 1 0.0 1.0 6 6
r 0.55 0 1 cbr 1000 ------- 1 0.0 1.0 4 4
+ 0.55 0 1 cbr 1000 ------- 1 0.0 1.0 10 10
+ 0.555 0 1 cbr 1000 ------- 1 0.0 1.0 11 11
- 0.556 0 1 cbr 1000 ------- 1 0.0 1.0 7 7
r 0.558 0 1 cbr 1000 ------- 1 0.0 1.0 5 5
+ 0.56 0 1 cbr 1000 ------- 1 0.0 1.0 12 12
- 0.564 0 1 cbr 1000 ------- 1 0.0 1.0 8 8
+ 0.565 0 1 cbr 1000 ------- 1 0.0 1.0 13 13
r 0.566 0 1 cbr 1000 ------- 1 0.0 1.0 6 6
+ 0.57 0 1 cbr 1000 ------- 1 0.0 1.0 14 14
- 0.572 0 1 cbr 1000 ------- 1 0.0 1.0 9 9
r 0.574 0 1 cbr 1000 ------- 1 0.0 1.0 7 7
+ 0.575 0 1 cbr 1000 ------- 1 0.0 1.0 15 15
- 0.58 0 1 cbr 1000 ------- 1 0.0 1.0 10 10
+ 0.58 0 1 cbr 1000 ------- 1 0.0 1.0 16 16
r 0.582 0 1 cbr 1000 ------- 1 0.0 1.0 8 8
+ 0.585 0 1 cbr 1000 ------- 1 0.0 1.0 17 17
- 0.588 0 1 cbr 1000 ------- 1 0.0 1.0 11 11
r 0.59 0 1 cbr 1000 ------- 1 0.0 1.0 9 9
+ 0.59 0 1 cbr 1000 ------- 1 0.0 1.0 18 18
+ 0.595 0 1 cbr 1000 ------- 1 0.0 1.0 19 19
- 0.596 0 1 cbr 1000 ------- 1 0.0 1.0 12 12
r 0.598 0 1 cbr 1000 ------- 1 0.0 1.0 10 10
+ 0.6 0 1 cbr 1000 ------- 1 0.0 1.0 20 20
- 0.604 0 1 cbr 1000 ------- 1 0.0 1.0 13 13
+ 0.605 0 1 cbr 1000 ------- 1 0.0 1.0 21 21
r 0.606 0 1 cbr 1000 ------- 1 0.0 1.0 11 11
+ 0.61 0 1 cbr 1000 ------- 1 0.0 1.0 22 22
- 0.612 0 1 cbr 1000 ------- 1 0.0 1.0 14 14
r 0.614 0 1 cbr 1000 ------- 1 0.0 1.0 12 12
+ 0.615 0 1 cbr 1000 ------- 1 0.0 1.0 23 23
- 0.62 0 1 cbr 1000 ------- 1 0.0 1.0 15 15
+ 0.62 0 1 cbr 1000 ------- 1 0.0 1.0 24 24
r 0.622 0 1 cbr 1000 ------- 1 0.0 1.0 13 13
+ 0.625 0 1 cbr 1000 ------- 1 0.0 1.0 25 25
- 0.628 0 1 cbr 1000 ------- 1 0.0 1.0 16 16
r 0.63 0 1 cbr 1000 ------- 1 0.0 1.0 14 14
+ 0.63 0 1 cbr 1000 ------- 1 0.0 1.0 26 26
+ 0.635 0 1 cbr 1000 ------- 1 0.0 1.0 27 27
- 0.636 0 1 cbr 1000 ------- 1 0.0 1.0 17 17
r 0.638 0 1 cbr 1000 ------- 1 0.0 1.0 15 15
+ 0.64 0 1 cbr 1000 ------- 1 0.0 1.0 28 28
- 0.644 0 1 cbr 1000 ------- 1 0.0 1.0 18 18
+ 0.645 0 1 cbr 1000 ------- 1 0.0 1.0 29 29
r 0.646 0 1 cbr 1000 ------- 1 0.0 1.0 16 16
+ 0.65 0 1 cbr 1000 ------- 1 0.0 1.0 30 30
- 0.652 0 1 cbr 1000 ------- 1 0.0 1.0 19 19
r 0.654 0 1 cbr 1000 ------- 1 0.0 1.0 17 17
+ 0.655 0 1 cbr 1000 ------- 1 0.0 1.0 31 31
- 0.66 0 1 cbr 1000 ------- 1 0.0 1.0 20 20
+ 0.66 0 1 cbr 1000 ------- 1 0.0 1.0 32 32
r 0.662 0 1 cbr 1000 ------- 1 0.0 1.0 18 18
+ 0.665 0 1 cbr 1000 ------- 1 0.0 1.0 33 33
- 0.668 0 1 cbr 1000 ------- 1 0.0 1.0 21 21
r 0.67 0 1 cbr 1000 ------- 1 0.0 1.0 19 19
+ 0.67 0 1 cbr 1000 ------- 1 0.0 1.0 34 34
+ 0.675 0 1 cbr 1000 ------- 1 0.0 1.0 35 35
- 0.676 0 1 cbr 1000 ------- 1 0.0 1.0 22 22
r 0.678 0 1 cbr 1000 ------- 1 0.0 1.0 20 20
+ 0.68 0 1 cbr 1000 ------- 1 0.0 1.0 36 36
- 0.684 0 1 cbr 1000 ------- 1 0.0 1.0 23 23
+ 0.685 0 1 cbr 1000 ------- 1 0.0 1.0 37 37
r 0.686 0 1 cbr 1000 ------- 1 0.0 1.0 21 21
+ 0.69 0 1 cbr 1000 ------- 1 0.0 1.0 38 38
- 0.692 0 1 cbr 1000 ------- 1 0.0 1.0 24 24
r 0.694 0 1 cbr 1000 ------- 1 0.0 1.0 22 22
+ 0.695 0 1 cbr 1000 ------- 1 0.0 1.0 39 39
- 0.7 0 1 cbr 1000 ------- 1 0.0 1.0 25 25
+ 0.7 0 1 cbr 1000 ------- 1 0.0 1.0 40 40
r 0.702 0 1 cbr 1000 ------- 1 0.0 1.0 23 23
+ 0.705 0 1 cbr 1000 ------- 1 0.0 1.0 41 41
- 0.708 0 1 cbr 1000 ------- 1 0.0 1.0 26 26
r 0.71 0 1 cbr 1000 ------- 1 0.0 1.0 24 24
+ 0.71 0 1 cbr 1000 ------- 1 0.0 1.0 42 42
+ 0.715 0 1 cbr 1000 ------- 1 0.0 1.0 43 43
- 0.716 0 1 cbr 1000 ------- 1 0.0 1.0 27 27
r 0.718 0 1 cbr 1000 ------- 1 0.0 1.0 25 25
+ 0.72 0 1 cbr 1000 ------- 1 0.0 1.0 44 44
- 0.724 0 1 cbr 1000 ------- 1 0.0 1.0 28 28
+ 0.725 0 1 cbr 1000 ------- 1 0.0 1.0 45 45
r 0.726 0 1 cbr 1000 ------- 1 0.0 1.0 26 26
+ 0.73 0 1 cbr 1000 ------- 1 0.0 1.0 46 46
- 0.732 0 1 cbr 1000 ------- 1 0.0 1.0 29 29
r 0.734 0 1 cbr 1000 ------- 1 0.0 1.0 27 27
+ 0.735 0 1 cbr 1000 ------- 1 0.0 1.0 47 47
- 0.74 0 1 cbr 1000 ------- 1 0.0 1.0 30 30
+ 0.74 0 1 cbr 1000 ------- 1 0.0 1.0 48 48
r 0.742 0 1 cbr 1000 ------- 1 0.0 1.0 28 28
+ 0.745 0 1 cbr 1000 ------- 1 0.0 1.0 49 49
- 0.748 0 1 cbr 1000 ------- 1 0.0 1.0 31 31
r 0.75 0 1 cbr 1000 ------- 1 0.0 1.0 29 29
+ 0.75 0 1 cbr 1000 ------- 1 0.0 1.0 50 50
+ 0.755 0 1 cbr 1000 ------- 1 0.0 1.0 51 51
- 0.756 0 1 cbr 1000 ------- 1 0.0 1.0 32 32
r 0.758 0 1 cbr 1000 ------- 1 0.0 1.0 30 30
+ 0.76 0 1 cbr 1000 ------- 1 0.0 1.0 52 52
- 0.764 0 1 cbr 1000 ------- 1 0.0 1.0 33 33
+ 0.765 0 1 cbr 1000 ------- 1 0.0 1.0 53 53
r 0.766 0 1 cbr 1000 ------- 1 0.0 1.0 31 31
+ 0.77 0 1 cbr 1000 ------- 1 0.0 1.0 54 54
- 0.772 0 1 cbr 1000 ------- 1 0.0 1.0 34 34
r 0.774 0 1 cbr 1000 ------- 1 0.0 1.0 32 32
+ 0.775 0 1 cbr 1000 ------- 1 0.0 1.0 55 55
- 0.78 0 1 cbr 1000 ------- 1 0.0 1.0 35 35
+ 0.78 0 1 cbr 1000 ------- 1 0.0 1.0 56 56
r 0.782 0 1 cbr 1000 ------- 1 0.0 1.0 33 33
+ 0.785 0 1 cbr 1000 ------- 1 0.0 1.0 57 57
- 0.788 0 1 cbr 1000 ------- 1 0.0 1.0 36 36
r 0.79 0 1 cbr 1000 ------- 1 0.0 1.0 34 34
+ 0.79 0 1 cbr 1000 ------- 1 0.0 1.0 58 58
+ 0.795 0 1 cbr 1000 ------- 1 0.0 1.0 59 59
- 0.796 0 1 cbr 1000 ------- 1 0.0 1.0 37 37
r 0.798 0 1 cbr 1000 ------- 1 0.0 1.0 35 35
+ 0.8 0 1 cbr 1000 ------- 1 0.0 1.0 60 60
- 0.804 0 1 cbr 1000 ------- 1 0.0 1.0 38 38
+ 0.805 0 1 cbr 1000 ------- 1 0.0 1.0 61 61
r 0.806 0 1 cbr 1000 ------- 1 0.0 1.0 36 36
+ 0.81 0 1 cbr 1000 ------- 1 0.0 1.0 62 62
- 0.812 0 1 cbr 1000 ------- 1 0.0 1.0 39 39
r 0.814 0 1 cbr 1000 ------- 1 0.0 1.0 37 37
+ 0.815 0 1 cbr 1000 ------- 1 0.0 1.0 63 63
- 0.82 0 1 cbr 1000 ------- 1 0.0 1.0 40 40
+ 0.82 0 1 cbr 1000 ------- 1 0.0 1.0 64 64
r 0.822 0 1 cbr 1000 ------- 1 0.0 1.0 38 38
+ 0.825 0 1 cbr 1000 ------- 1 0.0 1.0 65 65
- 0.828 0 1 cbr 1000 ------- 1 0.0 1.0 41 41
r 0.83 0 1 cbr 1000 ------- 1 0.0 1.0 39 39
+ 0.83 0 1 cbr 1000 ------- 1 0.0 1.0 66 66
+ 0.835 0 1 cbr 1000 ------- 1 0.0 1.0 67 67
- 0.836 0 1 cbr 1000 ------- 1 0.0 1.0 42 42
r 0.838 0 1 cbr 1000 ------- 1 0.0 1.0 40 40
+ 0.84 0 1 cbr 1000 ------- 1 0.0 1.0 68 68
- 0.844 0 1 cbr 1000 ------- 1 0.0 1.0 43 43
+ 0.845 0 1 cbr 1000 ------- 1 0.0 1.0 69 69
r 0.846 0 1 cbr 1000 ------- 1 0.0 1.0 41 41
+ 0.85 0 1 cbr 1000 ------- 1 0.0 1.0 70 70
- 0.852 0 1 cbr 1000 ------- 1 0.0 1.0 44 44
r 0.854 0 1 cbr 1000 ------- 1 0.0 1.0 42 42
+ 0.855 0 1 cbr 1000 ------- 1 0.0 1.0 71 71
- 0.86 0 1 cbr 1000 ------- 1 0.0 1.0 45 45
+ 0.86 0 1 cbr 1000 ------- 1 0.0 1.0 72 72
r 0.862 0 1 cbr 1000 ------- 1 0.0 1.0 43 43
+ 0.865 0 1 cbr 1000 ------- 1 0.0 1.0 73 73
- 0.868 0 1 cbr 1000 ------- 1 0.0 1.0 46 46
r 0.87 0 1 cbr 1000 ------- 1 0.0 1.0 44 44
+ 0.87 0 1 cbr 1000 ------- 1 0.0 1.0 74 74
+ 0.875 0 1 cbr 1000 ------- 1 0.0 1.0 75 75
- 0.876 0 1 cbr 1000 ------- 1 0.0 1.0 47 47
r 0.878 0 1 cbr 1000 ------- 1 0.0 1.0 45 45
+ 0.88 0 1 cbr 1000 ------- 1 0.0 1.0 76 76
- 0.884 0 1 cbr 1000 ------- 1 0.0 1.0 48 48
+ 0.885 0 1 cbr 1000 ------- 1 0.0 1.0 77 77
r 0.886 0 1 cbr 1000 ------- 1 0.0 1.0 46 46
+ 0.89 0 1 cbr 1000 ------- 1 0.0 1.0 78 78
- 0.892 0 1 cbr 1000 ------- 1 0.0 1.0 49 49
r 0.894 0 1 cbr 1000 ------- 1 0.0 1.0 47 47
+ 0.895 0 1 cbr 1000 ------- 1 0.0 1.0 79 79
- 0.9 0 1 cbr 1000 ------- 1 0.0 1.0 50 50
+ 0.9 0 1 cbr 1000 ------- 1 0.0 1.0 80 80
r 0.902 0 1 cbr 1000 ------- 1 0.0 1.0 48 48
+ 0.905 0 1 cbr 1000 ------- 1 0.0 1.0 81 81
- 0.908 0 1 cbr 1000 ------- 1 0.0 1.0 51 51
r 0.91 0 1 cbr 1000 ------- 1 0.0 1.0 49 49
+ 0.91 0 1 cbr 1000 ------- 1 0.0 1.0 82 82
+ 0.915 0 1 cbr 1000 ------- 1 0.0 1.0 83 83
- 0.916 0 1 cbr 1000 ------- 1 0.0 1.0 52 52
r 0.918 0 1 cbr 1000 ------- 1 0.0 1.0 50 50
+ 0.92 0 1 cbr 1000 ------- 1 0.0 1.0 84 84
- 0.924 0 1 cbr 1000 ------- 1 0.0 1.0 53 53
+ 0.925 0 1 cbr 1000 ------- 1 0.0 1.0 85 85
r 0.926 0 1 cbr 1000 ------- 1 0.0 1.0 51 51
+ 0.93 0 1 cbr 1000 ------- 1 0.0 1.0 86 86
- 0.932 0 1 cbr 1000 ------- 1 0.0 1.0 54 54
r 0.934 0 1 cbr 1000 ------- 1 0.0 1.0 52 52
+ 0.935 0 1 cbr 1000 ------- 1 0.0 1.0 87 87
- 0.94 0 1 cbr 1000 ------- 1 0.0 1.0 55 55
+ 0.94 0 1 cbr 1000 ------- 1 0.0 1.0 88 88
r 0.942 0 1 cbr 1000 ------- 1 0.0 1.0 53 53
+ 0.945 0 1 cbr 1000 ------- 1 0.0 1.0 89 89
- 0.948 0 1 cbr 1000 ------- 1 0.0 1.0 56 56
r 0.95 0 1 cbr 1000 ------- 1 0.0 1.0 54 54
+ 0.95 0 1 cbr 1000 ------- 1 0.0 1.0 90 90
+ 0.955 0 1 cbr 1000 ------- 1 0.0 1.0 91 91
- 0.956 0 1 cbr 1000 ------- 1 0.0 1.0 57 57
r 0.958 0 1 cbr 1000 ------- 1 0.0 1.0 55 55
+ 0.96 0 1 cbr 1000 ------- 1 0.0 1.0 92 92
- 0.964 0 1 cbr 1000 ------- 1 0.0 1.0 58 58
+ 0.965 0 1 cbr 1000 ------- 1 0.0 1.0 93 93
r 0.966 0 1 cbr 1000 ------- 1 0.0 1.0 56 56
+ 0.97 0 1 cbr 1000 ------- 1 0.0 1.0 94 94
- 0.972 0 1 cbr 1000 ------- 1 0.0 1.0 59 59
r 0.974 0 1 cbr 1000 ------- 1 0.0 1.0 57 57
+ 0.975 0 1 cbr 1000 ------- 1 0.0 1.0 95 95
- 0.98 0 1 cbr 1000 ------- 1 0.0 1.0 60 60
+ 0.98 0 1 cbr 1000 ------- 1 0.0 1.0 96 96
r 0.982 0 1 cbr 1000 ------- 1 0.0 1.0 58 58
+ 0.985 0 1 cbr 1000 ------- 1 0.0 1.0 97 97
- 0.988 0 1 cbr 1000 ------- 1 0.0 1.0 61 61
r 0.99 0 1 cbr 1000 ------- 1 0.0 1.0 59 59
+ 0.99 0 1 cbr 1000 ------- 1 0.0 1.0 98 98
+ 0.995 0 1 cbr 1000 ------- 1 0.0 1.0 99 99
- 0.996 0 1 cbr 1000 ------- 1 0.0 1.0 62 62
r 0.998 0 1 cbr 1000 ------- 1 0.0 1.0 60 60
+ 1 0 1 cbr 1000 ------- 1 0.0 1.0 100 100
- 1.004 0 1 cbr 1000 ------- 1 0.0 1.0 63 63
+ 1.005 0 1 cbr 1000 ------- 1 0.0 1.0 101 101
r 1.006 0 1 cbr 1000 ------- 1 0.0 1.0 61 61
+ 1.01 0 1 cbr 1000 ------- 1 0.0 1.0 102 102
- 1.012 0 1 cbr 1000 ------- 1 0.0 1.0 64 64
r 1.014 0 1 cbr 1000 ------- 1 0.0 1.0 62 62
+ 1.015 0 1 cbr 1000 ------- 1 0.0 1.0 103 103
+ 1.02 0 1 cbr 1000 ------- 1 0.0 1.0 104 104
- 1.02 0 1 cbr 1000 ------- 1 0.0 1.0 65 65
r 1.022 0 1 cbr 1000 ------- 1 0.0 1.0 63 63
+ 1.025 0 1 cbr 1000 ------- 1 0.0 1.0 105 105
- 1.028 0 1 cbr 1000 ------- 1 0.0 1.0 66 66
+ 1.03 0 1 cbr 1000 ------- 1 0.0 1.0 106 106
r 1.03 0 1 cbr 1000 ------- 1 0.0 1.0 64 64
+ 1.035 0 1 cbr 1000 ------- 1 0.0 1.0 107 107
- 1.036 0 1 cbr 1000 ------- 1 0.0 1.0 67 67
r 1.038 0 1 cbr 1000 ------- 1 0.0 1.0 65 65
+ 1.04 0 1 cbr 1000 ------- 1 0.0 1.0 108 108
- 1.044 0 1 cbr 1000 ------- 1 0.0 1.0 68 68
+ 1.045 0 1 cbr 1000 ------- 1 0.0 1.0 109 109
r 1.046 0 1 cbr 1000 ------- 1 0.0 1.0 66 66
+ 1.05 0 1 cbr 1000 ------- 1 0.0 1.0 110 110
- 1.052 0 1 cbr 1000 ------- 1 0.0 1.0 69 69
r 1.054 0 1 cbr 1000 ------- 1 0.0 1.0 67 67
+ 1.055 0 1 cbr 1000 ------- 1 0.0 1.0 111 111
+ 1.06 0 1 cbr 1000 ------- 1 0.0 1.0 112 112
- 1.06 0 1 cbr 1000 ------- 1 0.0 1.0 70 70
r 1.062 0 1 cbr 1000 ------- 1 0.0 1.0 68 68
+ 1.065 0 1 cbr 1000 ------- 1 0.0 1.0 113 113
- 1.068 0 1 cbr 1000 ------- 1 0.0 1.0 71 71
+ 1.07 0 1 cbr 1000 ------- 1 0.0 1.0 114 114
r 1.07 0 1 cbr 1000 ------- 1 0.0 1.0 69 69
+ 1.075 0 1 cbr 1000 ------- 1 0.0 1.0 115 115
- 1.076 0 1 cbr 1000 ------- 1 0.0 1.0 72 72
r 1.078 0 1 cbr 1000 ------- 1 0.0 1.0 70 70
+ 1.08 0 1 cbr 1000 ------- 1 0.0 1.0 116 116
- 1.084 0 1 cbr 1000 ------- 1 0.0 1.0 73 73
+ 1.085 0 1 cbr 1000 ------- 1 0.0 1.0 117 117
r 1.086 0 1 cbr 1000 ------- 1 0.0 1.0 71 71
+ 1.09 0 1 cbr 1000 ------- 1 0.0 1.0 118 118
- 1.092 0 1 cbr 1000 ------- 1 0.0 1.0 74 74
r 1.094 0 1 cbr 1000 ------- 1 0.0 1.0 72 72
+ 1.095 0 1 cbr 1000 ------- 1 0.0 1.0 119 119
+ 1.1 0 1 cbr 1000 ------- 1 0.0 1.0 120 120
- 1.1 0 1 cbr 1000 ------- 1 0.0 1.0 75 75
r 1.102 0 1 cbr 1000 ------- 1 0.0 1.0 73 73
+ 1.105 0 1 cbr 1000 ------- 1 0.0 1.0 121 121
- 1.108 0 1 cbr 1000 ------- 1 0.0 1.0 76 76
+ 1.11 0 1 cbr 1000 ------- 1 0.0 1.0 122 122
r 1.11 0 1 cbr 1000 ------- 1 0.0 1.0 74 74
+ 1.115 0 1 cbr 1000 ------- 1 0.0 1.0 123 123
- 1.116 0 1 cbr 1000 ------- 1 0.0 1.0 77 77
r 1.118 0 1 cbr 1000 ------- 1 0.0 1.0 75 75
+ 1.12 0 1 cbr 1000 ------- 1 0.0 1.0 124 124
- 1.124 0 1 cbr 1000 ------- 1 0.0 1.0 78 78
+ 1.125 0 1 cbr 1000 ------- 1 0.0 1.0 125 125
r 1.126 0 1 cbr 1000 ------- 1 0.0 1.0 76 76
+ 1.13 0 1 cbr 1000 ------- 1 0.0 1.0 126 126
- 1.132 0 1 cbr 1000 ------- 1 0.0 1.0 79 79
r 1.134 0 1 cbr 1000 ------- 1 0.0 1.0 77 77
+ 1.135 0 1 cbr 1000 ------- 1 0.0 1.0 127 127
+ 1.14 0 1 cbr 1000 ------- 1 0.0 1.0 128 128
- 1.14 0 1 cbr 1000 ------- 1 0.0 1.0 80 80
r 1.142 0 1 cbr 1000 ------- 1 0.0 1.0 78 78
+ 1.145 0 1 cbr 1000 ------- 1 0.0 1.0 129 129
- 1.148 0 1 cbr 1000 ------- 1 0.0 1.0 81 81
+ 1.15 0 1 cbr 1000 ------- 1 0.0 1.0 130 130
r 1.15 0 1 cbr 1000 ------- 1 0.0 1.0 79 79
+ 1.155 0 1 cbr 1000 ------- 1 0.0 1.0 131 131
d 1.155 0 1 cbr 1000 ------- 1 0.0 1.0 131 131
- 1.156 0 1 cbr 1000 ------- 1 0.0 1.0 82 82
r 1.158 0 1 cbr 1000 ------- 1 0.0 1.0 80 80
+ 1.16 0 1 cbr 1000 ------- 1 0.0 1.0 132 132
- 1.164 0 1 cbr 1000 ------- 1 0.0 1.0 83 83
+ 1.165 0 1 cbr 1000 ------- 1 0.0 1.0 133 133
r 1.166 0 1 cbr 1000 ------- 1 0.0 1.0 81 81
+ 1.17 0 1 cbr 1000 ------- 1 0.0 1.0 134 134
d 1.17 0 1 cbr 1000 ------- 1 0.0 1.0 134 134
- 1.172 0 1 cbr 1000 ------- 1 0.0 1.0 84 84
r 1.174 0 1 cbr 1000 ------- 1 0.0 1.0 82 82
+ 1.175 0 1 cbr 1000 ------- 1 0.0 1.0 135 135
+ 1.18 0 1 cbr 1000 ------- 1 0.0 1.0 136 136
d 1.18 0 1 cbr 1000 ------- 1 0.0 1.0 136 136
- 1.18 0 1 cbr 1000 ------- 1 0.0 1.0 85 85
r 1.182 0 1 cbr 1000 ------- 1 0.0 1.0 83 83
+ 1.185 0 1 cbr 1000 ------- 1 0.0 1.0 137 137
- 1.188 0 1 cbr 1000 ------- 1 0.0 1.0 86 86
+ 1.19 0 1 cbr 1000 ------- 1 0.0 1.0 138 138
r 1.19 0 1 cbr 1000 ------- 1 0.0 1.0 84 84
+ 1.195 0 1 cbr 1000 ------- 1 0.0 1.0 139 139
d 1.195 0 1 cbr 1000 ------- 1 0.0 1.0 139 139
- 1.196 0 1 cbr 1000 ------- 1 0.0 1.0 87 87
r 1.198 0 1 cbr 1000 ------- 1 0.0 1.0 85 85
+ 1.2 0 1 cbr 1000 ------- 1 0.0 1.0 140 140
- 1.204 0 1 cbr 1000 ------- 1 0.0 1.0 88 88
+ 1.205 0 1 cbr 1000 ------- 1 0.0 1.0 141 141
r 1.206 0 1 cbr 1000 ------- 1 0.0 1.0 86 86
+ 1.21 0 1 cbr 1000 ------- 1 0.0 1.0 142 142
d 1.21 0 1 cbr 1000 ------- 1 0.0 1.0 142 142
- 1.212 0 1 cbr 1000 ------- 1 0.0 1.0 89 89
r 1.214 0 1 cbr 1000 ------- 1 0.0 1.0 87 87
+ 1.215 0 1 cbr 1000 ------- 1 0.0 1.0 143 143
+ 1.22 0 1 cbr 1000 ------- 1 0.0 1.0 144 144
d 1.22 0 1 cbr 1000 ------- 1 0.0 1.0 144 144
- 1.22 0 1 cbr 1000 ------- 1 0.0 1.0 90 90
r 1.222 0 1 cbr 1000 ------- 1 0.0 1.0 88 88
+ 1.225 0 1 cbr 1000 ------- 1 0.0 1.0 145 145
- 1.228 0 1 cbr 1000 ------- 1 0.0 1.0 91 91
+ 1.23 0 1 cbr 1000 ------- 1 0.0 1.0 146 146
r 1.23 0 1 cbr 1000 ------- 1 0.0 1.0 89 89
+ 1.235 0 1 cbr 1000 ------- 1 0.0 1.0 147 147
d 1.235 0 1 cbr 1000 ------- 1 0.0 1.0 147 147
- 1.236 0 1 cbr 1000 ------- 1 0.0 1.0 92 92
r 1.238 0 1 cbr 1000 ------- 1 0.0 1.0 90 90
+ 1.24 0 1 cbr 1000 ------- 1 0.0 1.0 148 148
- 1.244 0 1 cbr 1000 ------- 1 0.0 1.0 93 93
+ 1.245 0 1 cbr 1000 ------- 1 0.0 1.0 149 149
r 1.246 0 1 cbr 1000 ------- 1 0.0 1.0 91 91
+ 1.25 0 1 cbr 1000 ------- 1 0.0 1.0 150 150
d 1.25 0 1 cbr 1000 ------- 1 0.0 1.0 150 150
- 1.252 0 1 cbr 1000 ------- 1 0.0 1.0 94 94
r 1.254 0 1 cbr 1000 ------- 1 0.0 1.0 92 92
+ 1.255 0 1 cbr 1000 ------- 1 0.0 1.0 151 151
+ 1.26 0 1 cbr 1000 ------- 1 0.0 1.0 152 152
d 1.26 0 1 cbr 1000 ------- 1 0.0 1.0 152 152
- 1.26 0 1 cbr 1000 ------- 1 0.0 1.0 95 95
r 1.262 0 1 cbr 1000 ------- 1 0.0 1.0 93 93
+ 1.265 0 1 cbr 1000 ------- 1 0.0 1.0 153 153
- 1.268 0 1 cbr 1000 ------- 1 0.0 1.0 96 96
+ 1.27 0 1 cbr 1000 ------- 1 0.0 1.0 154 154
r 1.27 0 1 cbr 1000 ------- 1 0.0 1.0 94 94
+ 1.275 0 1 cbr 1000 ------- 1 0.0 1.0 155 155
d 1.275 0 1 cbr 1000 ------- 1 0.0 1.0 155 155
- 1.276 0 1 cbr 1000 ------- 1 0.0 1.0 97 97
r 1.278 0 1 cbr 1000 ------- 1 0.0 1.0 95 95
+ 1.28 0 1 cbr 1000 ------- 1 0.0 1.0 156 156
- 1.284 0 1 cbr 1000 ------- 1 0.0 1.0 98 98
+ 1.285 0 1 cbr 1000 ------- 1 0.0 1.0 157 157
r 1.286 0 1 cbr 1000 ------- 1 0.0 1.0 96 96
+ 1.29 0 1 cbr 1000 ------- 1 0.0 1.0 158 158
d 1.29 0 1 cbr 1000 ------- 1 0.0 1.0 158 158
- 1.292 0 1 cbr 1000 ------- 1 0.0 1.0 99 99
r 1.294 0 1 cbr 1000 ------- 1 0.0 1.0 97 97
+ 1.295 0 1 cbr 1000 ------- 1 0.0 1.0 159 159
+ 1.3 0 1 cbr 1000 ------- 1 0.0 1.0 160 160
d 1.3 0 1 cbr 1000 ------- 1 0.0 1.0 160 160
- 1.3 0 1 cbr 1000 ------- 1 0.0 1.0 100 100
r 1.302 0 1 cbr 1000 ------- 1 0.0 1.0 98 98
+ 1.305 0 1 cbr 1000 ------- 1 0.0 1.0 161 161
- 1.308 0 1 cbr 1000 ------- 1 0.0 1.0 101 101
+ 1.31 0 1 cbr 1000 ------- 1 0.0 1.0 162 162
r 1.31 0 1 cbr 1000 ------- 1 0.0 1.0 99 99
+ 1.315 0 1 cbr 1000 ------- 1 0.0 1.0 163 163
d 1.315 0 1 cbr 1000 ------- 1 0.0 1.0 163 163
- 1.316 0 1 cbr 1000 ------- 1 0.0 1.0 102 102
r 1.318 0 1 cbr 1000 ------- 1 0.0 1.0 100 100
+ 1.32 0 1 cbr 1000 ------- 1 0.0 1.0 164 164
- 1.324 0 1 cbr 1000 ------- 1 0.0 1.0 103 103
+ 1.325 0 1 cbr 1000 ------- 1 0.0 1.0 165 165
r 1.326 0 1 cbr 1000 ------- 1 0.0 1.0 101 101
+ 1.33 0 1 cbr 1000 ------- 1 0.0 1.0 166 166
d 1.33 0 1 cbr 1000 ------- 1 0.0 1.0 166 166
- 1.332 0 1 cbr 1000 ------- 1 0.0 1.0 104 104
r 1.334 0 1 cbr 1000 ------- 1 0.0 1.0 102 102
+ 1.335 0 1 cbr 1000 ------- 1 0.0 1.0 167 167
+ 1.34 0 1 cbr 1000 ------- 1 0.0 1.0 168 168
d 1.34 0 1 cbr 1000 ------- 1 0.0 1.0 168 168
- 1.34 0 1 cbr 1000 ------- 1 0.0 1.0 105 105
r 1.342 0 1 cbr 1000 ------- 1 0.0 1.0 103 103
+ 1.345 0 1 cbr 1000 ------- 1 0.0 1.0 169 169
- 1.348 0 1 cbr 1000 ------- 1 0.0 1.0 106 106
+ 1.35 0 1 cbr 1000 ------- 1 0.0 1.0 170 170
r 1.35 0 1 cbr 1000 ------- 1 0.0 1.0 104 104
+ 1.355 0 1 cbr 1000 ------- 1 0.0 1.0 171 171
d 1.355 0 1 cbr 1000 ------- 1 0.0 1.0 171 171
- 1.356 0 1 cbr 1000 ------- 1 0.0 1.0 107 107
r 1.358 0 1 cbr 1000 ------- 1 0.0 1.0 105 105
+ 1.36 0 1 cbr 1000 ------- 1 0.0 1.0 172 172
- 1.364 0 1 cbr 1000 ------- 1 0.0 1.0 108 108
+ 1.365 0 1 cbr 1000 ------- 1 0.0 1.0 173 173
r 1.366 0 1 cbr 1000 ------- 1 0.0 1.0 106 106
+ 1.37 0 1 cbr 1000 ------- 1 0.0 1.0 174 174
d 1.37 0 1 cbr 1000 ------- 1 0.0 1.0 174 174
- 1.372 0 1 cbr 1000 ------- 1 0.0 1.0 109 109
r 1.374 0 1 cbr 1000 ------- 1 0.0 1.0 107 107
+ 1.375 0 1 cbr 1000 ------- 1 0.0 1.0 175 175
+ 1.38 0 1 cbr 1000 ------- 1 0.0 1.0 176 176
d 1.38 0 1 cbr 1000 ------- 1 0.0 1.0 176 176
- 1.38 0 1 cbr 1000 ------- 1 0.0 1.0 110 110
r 1.382 0 1 cbr 1000 ------- 1 0.0 1.0 108 108
+ 1.385 0 1 cbr 1000 ------- 1 0.0 1.0 177 177
- 1.388 0 1 cbr 1000 ------- 1 0.0 1.0 111 111
+ 1.39 0 1 cbr 1000 ------- 1 0.0 1.0 178 178
r 1.39 0 1 cbr 1000 ------- 1 0.0 1.0 109 109
+ 1.395 0 1 cbr 1000 ------- 1 0.0 1.0 179 179
d 1.395 0 1 cbr 1000 ------- 1 0.0 1.0 179 179
- 1.396 0 1 cbr 1000 ------- 1 0.0 1.0 112 112
r 1.398 0 1 cbr 1000 ------- 1 0.0 1.0 110 110
+ 1.4 0 1 cbr 1000 ------- 1 0.0 1.0 180 180
- 1.404 0 1 cbr 1000 ------- 1 0.0 1.0 113 113
+ 1.405 0 1 cbr 1000 ------- 1 0.0 1.0 181 181
r 1.406 0 1 cbr 1000 ------- 1 0.0 1.0 111 111
+ 1.41 0 1 cbr 1000 ------- 1 0.0 1.0 182 182
d 1.41 0 1 cbr 1000 ------- 1 0.0 1.0 182 182
- 1.412 0 1 cbr 1000 ------- 1 0.0 1.0 114 114
r 1.414 0 1 cbr 1000 ------- 1 0.0 1.0 112 112
+ 1.415 0 1 cbr 1000 ------- 1 0.0 1.0 183 183
+ 1.42 0 1 cbr 1000 ------- 1 0.0 1.0 184 184
d 1.42 0 1 cbr 1000 ------- 1 0.0 1.0 184 184
- 1.42 0 1 cbr 1000 ------- 1 0.0 1.0 115 115
r 1.422 0 1 cbr 1000 ------- 1 0.0 1.0 113 113
+ 1.425 0 1 cbr 1000 ------- 1 0.0 1.0 185 185
- 1.428 0 1 cbr 1000 ------- 1 0.0 1.0 116 116
+ 1.43 0 1 cbr 1000 ------- 1 0.0 1.0 186 186
r 1.43 0 1 cbr 1000 ------- 1 0.0 1.0 114 114
+ 1.435 0 1 cbr 1000 ------- 1 0.0 1.0 187 187
d 1.435 0 1 cbr 1000 ------- 1 0.0 1.0 187 187
- 1.436 0 1 cbr 1000 ------- 1 0.0 1.0 117 117
r 1.438 0 1 cbr 1000 ------- 1 0.0 1.0 115 115
+ 1.44 0 1 cbr 1000 ------- 1 0.0 1.0 188 188
- 1.444 0 1 cbr 1000 ------- 1 0.0 1.0 118 118
+ 1.445 0 1 cbr 1000 ------- 1 0.0 1.0 189 189
r 1.446 0 1 cbr 1000 ------- 1 0.0 1.0 116 116
+ 1.45 0 1 cbr 1000 ------- 1 0.0 1.0 190 190
d 1.45 0 1 cbr 1000 ------- 1 0.0 1.0 190 190
- 1.452 0 1 cbr 1000 ------- 1 0.0 1.0 119 119
r 1.454 0 1 cbr 1000 ------- 1 0.0 1.0 117 117
+ 1.455 0 1 cbr 1000 ------- 1 0.0 1.0 191 191
+ 1.46 0 1 cbr 1000 ------- 1 0.0 1.0 192 192
d 1.46 0 1 cbr 1000 ------- 1 0.0 1.0 192 192
- 1.46 0 1 cbr 1000 ------- 1 0.0 1.0 120 120
r 1.462 0 1 cbr 1000 ------- 1 0.0 1.0 118 118
+ 1.465 0 1 cbr 1000 ------- 1 0.0 1.0 193 193
- 1.468 0 1 cbr 1000 ------- 1 0.0 1.0 121 121
+ 1.47 0 1 cbr 1000 ------- 1 0.0 1.0 194 194
r 1.47 0 1 cbr 1000 ------- 1 0.0 1.0 119 119
+ 1.475 0 1 cbr 1000 ------- 1 0.0 1.0 195 195
d 1.475 0 1 cbr 1000 ------- 1 0.0 1.0 195 195
- 1.476 0 1 cbr 1000 ------- 1 0.0 1.0 122 122
r 1.478 0 1 cbr 1000 ------- 1 0.0 1.0 120 120
+ 1.48 0 1 cbr 1000 ------- 1 0.0 1.0 196 196
- 1.484 0 1 cbr 1000 ------- 1 0.0 1.0 123 123
+ 1.485 0 1 cbr 1000 ------- 1 0.0 1.0 197 197
r 1.486 0 1 cbr 1000 ------- 1 0.0 1.0 121 121
+ 1.49 0 1 cbr 1000 ------- 1 0.0 1.0 198 198
d 1.49 0 1 cbr 1000 ------- 1 0.0 1.0 198 198
- 1.492 0 1 cbr 1000 ------- 1 0.0 1.0 124 124
r 1.494 0 1 cbr 1000 ------- 1 0.0 1.0 122 122
+ 1.495 0 1 cbr 1000 ------- 1 0.0 1.0 199 199
+ 1.5 0 1 cbr 1000 ------- 1 0.0 1.0 200 200
d 1.5 0 1 cbr 1000 ------- 1 0.0 1.0 200 200
- 1.5 0 1 cbr 1000 ------- 1 0.0 1.0 125 125
r 1.502 0 1 cbr 1000 ------- 1 0.0 1.0 123 123
+ 1.505 0 1 cbr 1000 ------- 1 0.0 1.0 201 201
- 1.508 0 1 cbr 1000 ------- 1 0.0 1.0 126 126
+ 1.51 0 1 cbr 1000 ------- 1 0.0 1.0 202 202
r 1.51 0 1 cbr 1000 ------- 1 0.0 1.0 124 124
+ 1.515 0 1 cbr 1000 ------- 1 0.0 1.0 203 203
d 1.515 0 1 cbr 1000 ------- 1 0.0 1.0 203 203
- 1.516 0 1 cbr 1000 ------- 1 0.0 1.0 127 127
r 1.518 0 1 cbr 1000 ------- 1 0.0 1.0 125 125
+ 1.52 0 1 cbr 1000 ------- 1 0.0 1.0 204 204
- 1.524 0 1 cbr 1000 ------- 1 0.0 1.0 128 128
+ 1.525 0 1 cbr 1000 ------- 1 0.0 1.0 205 205
r 1.526 0 1 cbr 1000 ------- 1 0.0 1.0 126 126
+ 1.53 0 1 cbr 1000 ------- 1 0.0 1.0 206 206
d 1.53 0 1 cbr 1000 ------- 1 0.0 1.0 206 206
- 1.532 0 1 cbr 1000 ------- 1 0.0 1.0 129 129
r 1.534 0 1 cbr 1000 ------- 1 0.0 1.0 127 127
+ 1.535 0 1 cbr 1000 ------- 1 0.0 1.0 207 207
+ 1.54 0 1 cbr 1000 ------- 1 0.0 1.0 208 208
d 1.54 0 1 cbr 1000 ------- 1 0.0 1.0 208 208
- 1.54 0 1 cbr 1000 ------- 1 0.0 1.0 130 130
r 1.542 0 1 cbr 1000 ------- 1 0.0 1.0 128 128
+ 1.545 0 1 cbr 1000 ------- 1 0.0 1.0 209 209
- 1.548 0 1 cbr 1000 ------- 1 0.0 1.0 132 132
+ 1.55 0 1 cbr 1000 ------- 1 0.0 1.0 210 210
r 1.55 0 1 cbr 1000 ------- 1 0.0 1.0 129 129
+ 1.555 0 1 cbr 1000 ------- 1 0.0 1.0 211 211
d 1.555 0 1 cbr 1000 ------- 1 0.0 1.0 211 211
- 1.556 0 1 cbr 1000 ------- 1 0.0 1.0 133 133
r 1.558 0 1 cbr 1000 ------- 1 0.0 1.0 130 130
+ 1.56 0 1 cbr 1000 ------- 1 0.0 1.0 212 212
- 1.564 0 1 cbr 1000 ------- 1 0.0 1.0 135 135
+ 1.565 0 1 cbr 1000 ------- 1 0.0 1.0 213 213
r 1.566 0 1 cbr 1000 ------- 1 0.0 1.0 132 132
+ 1.57 0 1 cbr 1000 ------- 1 0.0 1.0 214 214
d 1.57 0 1 cbr 1000 ------- 1 0.0 1.0 214 214
- 1.572 0 1 cbr 1000 ------- 1 0.0 1.0 137 137
r 1.574 0 1 cbr 1000 ------- 1 0.0 1.0 133 133
+ 1.575 0 1 cbr 1000 ------- 1 0.0 1.0 215 215
+ 1.58 0 1 cbr 1000 ------- 1 0.0 1.0 216 216
d 1.58 0 1 cbr 1000 ------- 1 0.0 1.0 216 216
- 1.58 0 1 cbr 1000 ------- 1 0.0 1.0 138 138
r 1.582 0 1 cbr 1000 ------- 1 0.0 1.0 135 135
+ 1.585 0 1 cbr 1000 ------- 1 0.0 1.0 217 217
- 1.588 0 1 cbr 1000 ------- 1 0.0 1.0 140 140
+ 1.59 0 1 cbr 1000 ------- 1 0.0 1.0 218 218
r 1.59 0 1 cbr 1000 ------- 1 0.0 1.0 137 137
+ 1.595 0 1 cbr 1000 ------- 1 0.0 1.0 219 219
d 1.595 0 1 cbr 1000 ------- 1 0.0 1.0 219 219
- 1.596 0 1 cbr 1000 ------- 1 0.0 1.0 141 141
r 1.598 0 1 cbr 1000 ------- 1 0.0 1.0 138 138
+ 1.6 0 1 cbr 1000 ------- 1 0.0 1.0 220 220
- 1.604 0 1 cbr 1000 ------- 1 0.0 1.0 143 143
+ 1.605 0 1 cbr 1000 ------- 1 0.0 1.0 221 221
r 1.606 0 1 cbr 1000 ------- 1 0.0 1.0 140 140
+ 1.61 0 1 cbr 1000 ------- 1 0.0 1.0 222 222
d 1.61 0 1 cbr 1000 ------- 1 0.0 1.0 222 222
- 1.612 0 1 cbr 1000 ------- 1 0.0 1.0 145 145
r 1.614 0 1 cbr 1000 ------- 1 0.0 1.0 141 141
+ 1.615 0 1 cbr 1000 ------- 1 0.0 1.0 223 223
+ 1.62 0 1 cbr 1000 ------- 1 0.0 1.0 224 224
d 1.62 0 1 cbr 1000 ------- 1 0.0 1.0 224 224
- 1.62 0 1 cbr 1000 ------- 1 0.0 1.0 146 146
r 1.622 0 1 cbr 1000 ------- 1 0.0 1.0 143 143
+ 1.625 0 1 cbr 1000 ------- 1 0.0 1.0 225 225
- 1.628 0 1 cbr 1000 ------- 1 0.0 1.0 148 148
+ 1.63 0 1 cbr 1000 ------- 1 0.0 1.0 226 226
r 1.63 0 1 cbr 1000 ------- 1 0.0 1.0 145 145
+ 1.635 0 1 cbr 1000 ------- 1 0.0 1.0 227 227
d 1.635 0 1 cbr 1000 ------- 1 0.0 1.0 227 227
- 1.636 0 1 cbr 1000 ------- 1 0.0 1.0 149 149
r 1.638 0 1 cbr 1000 ------- 1 0.0 1.0 146 146
+ 1.64 0 1 cbr 1000 ------- 1 0.0 1.0 228 228
- 1.644 0 1 cbr 1000 ------- 1 0.0 1.0 151 151
+ 1.645 0 1 cbr 1000 ------- 1 0.0 1.0 229 229
r 1.646 0 1 cbr 1000 ------- 1 0.0 1.0 148 148
+ 1.65 0 1 cbr 1000 ------- 1 0.0 1.0 230 230
d 1.65 0 1 cbr 1000 ------- 1 0.0 1.0 230 230
- 1.652 0 1 cbr 1000 ------- 1 0.0 1.0 153 153
r 1.654 0 1 cbr 1000 ------- 1 0.0 1.0 149 149
+ 1.655 0 1 cbr 1000 ------- 1 0.0 1.0 231 231
+ 1.66 0 1 cbr 1000 ------- 1 0.0 1.0 232 232
d 1.66 0 1 cbr 1000 ------- 1 0.0 1.0 232 232
- 1.66 0 1 cbr 1000 ------- 1 0.0 1.0 154 154
r 1.662 0 1 cbr 1000 ------- 1 0.0 1.0 151 151
+ 1.665 0 1 cbr 1000 ------- 1 0.0 1.0 233 233
- 1.668 0 1 cbr 1000 ------- 1 0.0 1.0 156 156
+ 1.67 0 1 cbr 1000 ------- 1 0.0 1.0 234 234
r 1.67 0 1 cbr 1000 ------- 1 0.0 1.0 153 153
+ 1.675 0 1 cbr 1000 ------- 1 0.0 1.0 235 235
d 1.675 0 1 cbr 1000 ------- 1 0.0 1.0 235 235
- 1.676 0 1 cbr 1000 ------- 1 0.0 1.0 157 157
r 1.678 0 1 cbr 1000 ------- 1 0.0 1.0 154 154
+ 1.68 0 1 cbr 1000 ------- 1 0.0 1.0 236 236
- 1.684 0 1 cbr 1000 ------- 1 0.0 1.0 159 159
+ 1.685 0 1 cbr 1000 ------- 1 0.0 1.0 237 237
r 1.686 0 1 cbr 1000 ------- 1 0.0 1.0 156 156
+ 1.69 0 1 cbr 1000 ------- 1 0.0 1.0 238 238
d 1.69 0 1 cbr 1000 ------- 1 0.0 1.0 238 238
- 1.692 0 1 cbr 1000 ------- 1 0.0 1.0 161 161
r 1.694 0 1 cbr 1000 ------- 1 0.0 1.0 157 157
+ 1.695 0 1 cbr 1000 ------- 1 0.0 1.0 239 239
+ 1.7 0 1 cbr 1000 ------- 1 0.0 1.0 240 240
d 1.7 0 1 cbr 1000 ------- 1 0.0 1.0 240 240
- 1.7 0 1 cbr 1000 ------- 1 0.0 1.0 162 162
r 1.702 0 1 cbr 1000 ------- 1 0.0 1.0 159 159
+ 1.705 0 1 cbr 1000 ------- 1 0.0 1.0 241 241
- 1.708 0 1 cbr 1000 ------- 1 0.0 1.0 164 164
+ 1.71 0 1 cbr 1000 ------- 1 0.0 1.0 242 242
r 1.71 0 1 cbr 1000 ------- 1 0.0 1.0 161 161
+ 1.715 0 1 cbr 1000 ------- 1 0.0 1.0 243 243
d 1.715 0 1 cbr 1000 ------- 1 0.0 1.0 243 243
- 1.716 0 1 cbr 1000 ------- 1 0.0 1.0 165 165
r 1.718 0 1 cbr 1000 ------- 1 0.0 1.0 162 162
+ 1.72 0 1 cbr 1000 ------- 1 0.0 1.0 244 244
- 1.724 0 1 cbr 1000 ------- 1 0.0 1.0 167 167
+ 1.725 0 1 cbr 1000 ------- 1 0.0 1.0 245 245
r 1.726 0 1 cbr 1000 ------- 1 0.0 1.0 164 164
+ 1.73 0 1 cbr 1000 ------- 1 0.0 1.0 246 246
d 1.73 0 1 cbr 1000 ------- 1 0.0 1.0 246 246
- 1.732 0 1 cbr 1000 ------- 1 0.0 1.0 169 169
r 1.734 0 1 cbr 1000 ------- 1 0.0 1.0 165 165
+ 1.735 0 1 cbr 1000 ------- 1 0.0 1.0 247 247
+ 1.74 0 1 cbr 1000 ------- 1 0.0 1.0 248 248
d 1.74 0 1 cbr 1000 ------- 1 0.0 1.0 248 248
- 1.74 0 1 cbr 1000 ------- 1 0.0 1.0 170 170
r 1.742 0 1 cbr 1000 ------- 1 0.0 1.0 167 167
+ 1.745 0 1 cbr 1000 ------- 1 0.0 1.0 249 249
- 1.748 0 1 cbr 1000 ------- 1 0.0 1.0 172 172
+ 1.75 0 1 cbr 1000 ------- 1 0.0 1.0 250 250
r 1.75 0 1 cbr 1000 ------- 1 0.0 1.0 169 169
+ 1.755 0 1 cbr 1000 ------- 1 0.0 1.0 251 251
d 1.755 0 1 cbr 1000 ------- 1 0.0 1.0 251 251
- 1.756 0 1 cbr 1000 ------- 1 0.0 1.0 173 173
r 1.758 0 1 cbr 1000 ------- 1 0.0 1.0 170 170
+ 1.76 0 1 cbr 1000 ------- 1 0.0 1.0 252 252
- 1.764 0 1 cbr 1000 ------- 1 0.0 1.0 175 175
+ 1.765 0 1 cbr 1000 ------- 1 0.0 1.0 253 253
r 1.766 0 1 cbr 1000 ------- 1 0.0 1.0 172 172
+ 1.77 0 1 cbr 1000 ------- 1 0.0 1.0 254 254
d 1.77 0 1 cbr 1000 ------- 1 0.0 1.0 254 254
- 1.772 0 1 cbr 1000 ------- 1 0.0 1.0 177 177
r 1.774 0 1 cbr 1000 ------- 1 0.0 1.0 173 173
+ 1.775 0 1 cbr 1000 ------- 1 0.0 1.0 255 255
+ 1.78 0 1 cbr 1000 ------- 1 0.0 1.0 256 256
d 1.78 0 1 cbr 1000 ------- 1 0.0 1.0 256 256
- 1.78 0 1 cbr 1000 ------- 1 0.0 1.0 178 178
r 1.782 0 1 cbr 1000 ------- 1 0.0 1.0 175 175
+ 1.785 0 1 cbr 1000 ------- 1 0.0 1.0 257 257
- 1.788 0 1 cbr 1000 ------- 1 0.0 1.0 180 180
+ 1.79 0 1 cbr 1000 ------- 1 0.0 1.0 258 258
r 1.79 0 1 cbr 1000 ------- 1 0.0 1.0 177 177
+ 1.795 0 1 cbr 1000 ------- 1 0.0 1.0 259 259
d 1.795 0 1 cbr 1000 ------- 1 0.0 1.0 259 259
- 1.796 0 1 cbr 1000 ------- 1 0.0 1.0 181 181
r 1.798 0 1 cbr 1000 ------- 1 0.0 1.0 178 178
+ 1.8 0 1 cbr 1000 ------- 1 0.0 1.0 260 260
- 1.804 0 1 cbr 1000 ------- 1 0.0 1.0 183 183
+ 1.805 0 1 cbr 1000 ------- 1 0.0 1.0 261 261
r 1.806 0 1 cbr 1000 ------- 1 0.0 1.0 180 180
+ 1.81 0 1 cbr 1000 ------- 1 0.0 1.0 262 262
d 1.81 0 1 cbr 1000 ------- 1 0.0 1.0 262 262
- 1.812 0 1 cbr 1000 ------- 1 0.0 1.0 185 185
r 1.814 0 1 cbr 1000 ------- 1 0.0 1.0 181 181
+ 1.815 0 1 cbr 1000 ------- 1 0.0 1.0 263 263
+ 1.82 0 1 cbr 1000 ------- 1 0.0 1.0 264 264
d 1.82 0 1 cbr 1000 ------- 1 0.0 1.0 264 264
- 1.82 0 1 cbr 1000 ------- 1 0.0 1.0 186 186
r 1.822 0 1 cbr 1000 ------- 1 0.0 1.0 183 183
+ 1.825 0 1 cbr 1000 ------- 1 0.0 1.0 265 265
- 1.828 0 1 cbr 1000 ------- 1 0.0 1.0 188 188
+ 1.83 0 1 cbr 1000 ------- 1 0.0 1.0 266 266
r 1.83 0 1 cbr 1000 ------- 1 0.0 1.0 185 185
+ 1.835 0 1 cbr 1000 ------- 1 0.0 1.0 267 267
d 1.835 0 1 cbr 1000 ------- 1 0.0 1.0 267 267
- 1.836 0 1 cbr 1000 ------- 1 0.0 1.0 189 189
r 1.838 0 1 cbr 1000 ------- 1 0.0 1.0 186 186
+ 1.84 0 1 cbr 1000 ------- 1 0.0 1.0 268 268
- 1.844 0 1 cbr 1000 ------- 1 0.0 1.0 191 191
+ 1.845 0 1 cbr 1000 ------- 1 0.0 1.0 269 269