+ 0 0 2 tcp 40 ------- 1 0.0 3.0 0 0
- 0 0 2 tcp 40 ------- 1 0.0 3.0 0 0
+ 0 1 2 tcp 40 ------- 2 1.0 4.0 0 1
- 0 1 2 tcp 40 ------- 2 1.0 4.0 0 1
r 0.01032 0 2 tcp 40 ------- 1 0.0 3.0 0 0
+ 0.01032 2 3 tcp 40 ------- 1 0.0 3.0 0 0
- 0.01032 2 3 tcp 40 ------- 1 0.0 3.0 0 0
r 0.01032 1 2 tcp 40 ------- 2 1.0 4.0 0 1
+ 0.01032 2 3 tcp 40 ------- 2 1.0 4.0 0 1
- 0.01064 2 3 tcp 40 ------- 2 1.0 4.0 0 1
r 0.02064 2 3 tcp 40 ------- 1 0.0 3.0 0 0
+ 0.02064 3 2 ack 40 ------- 1 3.0 0.0 0 2
- 0.02064 3 2 ack 40 ------- 1 3.0 0.0 0 2
r 0.02096 2 3 tcp 40 ------- 2 1.0 4.0 0 1
+ 0.02096 3 4 tcp 40 ------- 2 1.0 4.0 0 1
- 0.02096 3 4 tcp 40 ------- 2 1.0 4.0 0 1
r 0.03096 3 2 ack 40 ------- 1 3.0 0.0 0 2
+ 0.03096 2 0 ack 40 ------- 1 3.0 0.0 0 2
- 0.03096 2 0 ack 40 ------- 1 3.0 0.0 0 2
r 0.04128 2 0 ack 40 ------- 1 3.0 0.0 0 2
+ 0.04128 0 2 tcp 1040 ------- 1 0.0 3.0 1 3
- 0.04128 0 2 tcp 1040 ------- 1 0.0 3.0 1 3
+ 0.04128 0 2 tcp 1040 ------- 1 0.0 3.0 2 4
- 0.0496 0 2 tcp 1040 ------- 1 0.0 3.0 2 4
r 0.0596 0 2 tcp 1040 ------- 1 0.0 3.0 1 3
+ 0.0596 2 3 tcp 1040 ------- 1 0.0 3.0 1 3
- 0.0596 2 3 tcp 1040 ------- 1 0.0 3.0 1 3
r 0.06792 0 2 tcp 1040 ------- 1 0.0 3.0 2 4
+ 0.06792 2 3 tcp 1040 ------- 1 0.0 3.0 2 4
- 0.06792 2 3 tcp 1040 ------- 1 0.0 3.0 2 4
r 0.07128 3 4 tcp 40 ------- 2 1.0 4.0 0 1
+ 0.07128 4 3 ack 40 ------- 2 4.0 1.0 0 5
- 0.07128 4 3 ack 40 ------- 2 4.0 1.0 0 5
r 0.07792 2 3 tcp 1040 ------- 1 0.0 3.0 1 3
+ 0.07792 3 2 ack 40 ------- 1 3.0 0.0 1 6
- 0.07792 3 2 ack 40 ------- 1 3.0 0.0 1 6
r 0.08624 2 3 tcp 1040 ------- 1 0.0 3.0 2 4
+ 0.08624 3 2 ack 40 ------- 1 3.0 0.0 2 7
- 0.08624 3 2 ack 40 ------- 1 3.0 0.0 2 7
r 0.08824 3 2 ack 40 ------- 1 3.0 0.0 1 6
+ 0.08824 2 0 ack 40 ------- 1 3.0 0.0 1 6
- 0.08824 2 0 ack 40 ------- 1 3.0 0.0 1 6
r 0.09656 3 2 ack 40 ------- 1 3.0 0.0 2 7
+ 0.09656 2 0 ack 40 ------- 1 3.0 0.0 2 7
- 0.09656 2 0 ack 40 ------- 1 3.0 0.0 2 7
r 0.09856 2 0 ack 40 ------- 1 3.0 0.0 1 6
+ 0.09856 0 2 tcp 1040 ------- 1 0.0 3.0 3 8
- 0.09856 0 2 tcp 1040 ------- 1 0.0 3.0 3 8
+ 0.09856 0 2 tcp 1040 ------- 1 0.0 3.0 4 9
- 0.10688 0 2 tcp 1040 ------- 1 0.0 3.0 4 9
r 0.10688 2 0 ack 40 ------- 1 3.0 0.0 2 7
+ 0.10688 0 2 tcp 1040 ------- 1 0.0 3.0 5 10
+ 0.10688 0 2 tcp 1040 ------- 1 0.0 3.0 6 11
- 0.1152 0 2 tcp 1040 ------- 1 0.0 3.0 5 10
r 0.11688 0 2 tcp 1040 ------- 1 0.0 3.0 3 8
+ 0.11688 2 3 tcp 1040 ------- 1 0.0 3.0 3 8
- 0.11688 2 3 tcp 1040 ------- 1 0.0 3.0 3 8
r 0.1216 4 3 ack 40 ------- 2 4.0 1.0 0 5
+ 0.1216 3 2 ack 40 ------- 2 4.0 1.0 0 5
- 0.1216 3 2 ack 40 ------- 2 4.0 1.0 0 5
- 0.12352 0 2 tcp 1040 ------- 1 0.0 3.0 6 11
r 0.1252 0 2 tcp 1040 ------- 1 0.0 3.0 4 9
+ 0.1252 2 3 tcp 1040 ------- 1 0.0 3.0 4 9
- 0.1252 2 3 tcp 1040 ------- 1 0.0 3.0 4 9
r 0.13192 3 2 ack 40 ------- 2 4.0 1.0 0 5
+ 0.13192 2 1 ack 40 ------- 2 4.0 1.0 0 5
- 0.13192 2 1 ack 40 ------- 2 4.0 1.0 0 5
r 0.13352 0 2 tcp 1040 ------- 1 0.0 3.0 5 10
+ 0.13352 2 3 tcp 1040 ------- 1 0.0 3.0 5 10
- 0.13352 2 3 tcp 1040 ------- 1 0.0 3.0 5 10
r 0.1352 2 3 tcp 1040 ------- 1 0.0 3.0 3 8
+ 0.1352 3 2 ack 40 ------- 1 3.0 0.0 3 12
- 0.1352 3 2 ack 40 ------- 1 3.0 0.0 3 12
r 0.14184 0 2 tcp 1040 ------- 1 0.0 3.0 6 11
+ 0.14184 2 3 tcp 1040 ------- 1 0.0 3.0 6 11
- 0.14184 2 3 tcp 1040 ------- 1 0.0 3.0 6 11
r 0.14224 2 1 ack 40 ------- 2 4.0 1.0 0 5
+ 0.14224 1 2 tcp 1040 ------- 2 1.0 4.0 1 13
- 0.14224 1 2 tcp 1040 ------- 2 1.0 4.0 1 13
+ 0.14224 1 2 tcp 1040 ------- 2 1.0 4.0 2 14
r 0.14352 2 3 tcp 1040 ------- 1 0.0 3.0 4 9
+ 0.14352 3 2 ack 40 ------- 1 3.0 0.0 4 15
- 0.14352 3 2 ack 40 ------- 1 3.0 0.0 4 15
r 0.14552 3 2 ack 40 ------- 1 3.0 0.0 3 12
+ 0.14552 2 0 ack 40 ------- 1 3.0 0.0 3 12
- 0.14552 2 0 ack 40 ------- 1 3.0 0.0 3 12
- 0.15056 1 2 tcp 1040 ------- 2 1.0 4.0 2 14
r 0.15184 2 3 tcp 1040 ------- 1 0.0 3.0 5 10
+ 0.15184 3 2 ack 40 ------- 1 3.0 0.0 5 16
- 0.15184 3 2 ack 40 ------- 1 3.0 0.0 5 16
r 0.15384 3 2 ack 40 ------- 1 3.0 0.0 4 15
+ 0.15384 2 0 ack 40 ------- 1 3.0 0.0 4 15
- 0.15384 2 0 ack 40 ------- 1 3.0 0.0 4 15
r 0.15584 2 0 ack 40 ------- 1 3.0 0.0 3 12
+ 0.15584 0 2 tcp 1040 ------- 1 0.0 3.0 7 17
- 0.15584 0 2 tcp 1040 ------- 1 0.0 3.0 7 17
+ 0.15584 0 2 tcp 1040 ------- 1 0.0 3.0 8 18
r 0.16016 2 3 tcp 1040 ------- 1 0.0 3.0 6 11
+ 0.16016 3 2 ack 40 ------- 1 3.0 0.0 6 19
- 0.16016 3 2 ack 40 ------- 1 3.0 0.0 6 19
r 0.16056 1 2 tcp 1040 ------- 2 1.0 4.0 1 13
+ 0.16056 2 3 tcp 1040 ------- 2 1.0 4.0 1 13
- 0.16056 2 3 tcp 1040 ------- 2 1.0 4.0 1 13
r 0.16216 3 2 ack 40 ------- 1 3.0 0.0 5 16
+ 0.16216 2 0 ack 40 ------- 1 3.0 0.0 5 16
- 0.16216 2 0 ack 40 ------- 1 3.0 0.0 5 16
- 0.16416 0 2 tcp 1040 ------- 1 0.0 3.0 8 18
r 0.16416 2 0 ack 40 ------- 1 3.0 0.0 4 15
+ 0.16416 0 2 tcp 1040 ------- 1 0.0 3.0 9 20
+ 0.16416 0 2 tcp 1040 ------- 1 0.0 3.0 10 21
r 0.16888 1 2 tcp 1040 ------- 2 1.0 4.0 2 14
+ 0.16888 2 3 tcp 1040 ------- 2 1.0 4.0 2 14
- 0.16888 2 3 tcp 1040 ------- 2 1.0 4.0 2 14
r 0.17048 3 2 ack 40 ------- 1 3.0 0.0 6 19
+ 0.17048 2 0 ack 40 ------- 1 3.0 0.0 6 19
- 0.17048 2 0 ack 40 ------- 1 3.0 0.0 6 19
- 0.17248 0 2 tcp 1040 ------- 1 0.0 3.0 9 20
r 0.17248 2 0 ack 40 ------- 1 3.0 0.0 5 16
+ 0.17248 0 2 tcp 1040 ------- 1 0.0 3.0 11 22
+ 0.17248 0 2 tcp 1040 ------- 1 0.0 3.0 12 23
r 0.17416 0 2 tcp 1040 ------- 1 0.0 3.0 7 17
+ 0.17416 2 3 tcp 1040 ------- 1 0.0 3.0 7 17
- 0.1772 2 3 tcp 1040 ------- 1 0.0 3.0 7 17
r 0.17888 2 3 tcp 1040 ------- 2 1.0 4.0 1 13
+ 0.17888 3 4 tcp 1040 ------- 2 1.0 4.0 1 13
- 0.17888 3 4 tcp 1040 ------- 2 1.0 4.0 1 13
- 0.1808 0 2 tcp 1040 ------- 1 0.0 3.0 10 21
r 0.1808 2 0 ack 40 ------- 1 3.0 0.0 6 19
+ 0.1808 0 2 tcp 1040 ------- 1 0.0 3.0 13 24
+ 0.1808 0 2 tcp 1040 ------- 1 0.0 3.0 14 25
r 0.18248 0 2 tcp 1040 ------- 1 0.0 3.0 8 18
+ 0.18248 2 3 tcp 1040 ------- 1 0.0 3.0 8 18
- 0.18552 2 3 tcp 1040 ------- 1 0.0 3.0 8 18
r 0.1872 2 3 tcp 1040 ------- 2 1.0 4.0 2 14
+ 0.1872 3 4 tcp 1040 ------- 2 1.0 4.0 2 14
- 0.1872 3 4 tcp 1040 ------- 2 1.0 4.0 2 14
- 0.18912 0 2 tcp 1040 ------- 1 0.0 3.0 11 22
r 0.1908 0 2 tcp 1040 ------- 1 0.0 3.0 9 20
+ 0.1908 2 3 tcp 1040 ------- 1 0.0 3.0 9 20
- 0.19384 2 3 tcp 1040 ------- 1 0.0 3.0 9 20
r 0.19552 2 3 tcp 1040 ------- 1 0.0 3.0 7 17
+ 0.19552 3 2 ack 40 ------- 1 3.0 0.0 7 26
- 0.19552 3 2 ack 40 ------- 1 3.0 0.0 7 26
- 0.19744 0 2 tcp 1040 ------- 1 0.0 3.0 12 23
r 0.19912 0 2 tcp 1040 ------- 1 0.0 3.0 10 21
+ 0.19912 2 3 tcp 1040 ------- 1 0.0 3.0 10 21
- 0.20216 2 3 tcp 1040 ------- 1 0.0 3.0 10 21
r 0.20384 2 3 tcp 1040 ------- 1 0.0 3.0 8 18
+ 0.20384 3 2 ack 40 ------- 1 3.0 0.0 8 27
- 0.20384 3 2 ack 40 ------- 1 3.0 0.0 8 27
- 0.20576 0 2 tcp 1040 ------- 1 0.0 3.0 13 24
r 0.20584 3 2 ack 40 ------- 1 3.0 0.0 7 26
+ 0.20584 2 0 ack 40 ------- 1 3.0 0.0 7 26
- 0.20584 2 0 ack 40 ------- 1 3.0 0.0 7 26
r 0.20744 0 2 tcp 1040 ------- 1 0.0 3.0 11 22
+ 0.20744 2 3 tcp 1040 ------- 1 0.0 3.0 11 22
- 0.21048 2 3 tcp 1040 ------- 1 0.0 3.0 11 22
r 0.21216 2 3 tcp 1040 ------- 1 0.0 3.0 9 20
+ 0.21216 3 2 ack 40 ------- 1 3.0 0.0 9 28
- 0.21216 3 2 ack 40 ------- 1 3.0 0.0 9 28
- 0.21408 0 2 tcp 1040 ------- 1 0.0 3.0 14 25
r 0.21416 3 2 ack 40 ------- 1 3.0 0.0 8 27
+ 0.21416 2 0 ack 40 ------- 1 3.0 0.0 8 27
- 0.21416 2 0 ack 40 ------- 1 3.0 0.0 8 27
r 0.21576 0 2 tcp 1040 ------- 1 0.0 3.0 12 23
+ 0.21576 2 3 tcp 1040 ------- 1 0.0 3.0 12 23
r 0.21616 2 0 ack 40 ------- 1 3.0 0.0 7 26
+ 0.21616 0 2 tcp 1040 ------- 1 0.0 3.0 15 29
+ 0.21616 0 2 tcp 1040 ------- 1 0.0 3.0 16 30
- 0.2188 2 3 tcp 1040 ------- 1 0.0 3.0 12 23
r 0.22048 2 3 tcp 1040 ------- 1 0.0 3.0 10 21
+ 0.22048 3 2 ack 40 ------- 1 3.0 0.0 10 31
- 0.22048 3 2 ack 40 ------- 1 3.0 0.0 10 31
- 0.2224 0 2 tcp 1040 ------- 1 0.0 3.0 15 29
r 0.22248 3 2 ack 40 ------- 1 3.0 0.0 9 28
+ 0.22248 2 0 ack 40 ------- 1 3.0 0.0 9 28
- 0.22248 2 0 ack 40 ------- 1 3.0 0.0 9 28
r 0.22408 0 2 tcp 1040 ------- 1 0.0 3.0 13 24
+ 0.22408 2 3 tcp 1040 ------- 1 0.0 3.0 13 24
r 0.22448 2 0 ack 40 ------- 1 3.0 0.0 8 27
+ 0.22448 0 2 tcp 1040 ------- 1 0.0 3.0 17 32
+ 0.22448 0 2 tcp 1040 ------- 1 0.0 3.0 18 33
- 0.22712 2 3 tcp 1040 ------- 1 0.0 3.0 13 24
r 0.2288 2 3 tcp 1040 ------- 1 0.0 3.0 11 22
+ 0.2288 3 2 ack 40 ------- 1 3.0 0.0 11 34
- 0.2288 3 2 ack 40 ------- 1 3.0 0.0 11 34
- 0.23072 0 2 tcp 1040 ------- 1 0.0 3.0 16 30
r 0.2308 3 2 ack 40 ------- 1 3.0 0.0 10 31
+ 0.2308 2 0 ack 40 ------- 1 3.0 0.0 10 31
- 0.2308 2 0 ack 40 ------- 1 3.0 0.0 10 31
r 0.2324 0 2 tcp 1040 ------- 1 0.0 3.0 14 25
+ 0.2324 2 3 tcp 1040 ------- 1 0.0 3.0 14 25
r 0.2328 2 0 ack 40 ------- 1 3.0 0.0 9 28
+ 0.2328 0 2 tcp 1040 ------- 1 0.0 3.0 19 35
+ 0.2328 0 2 tcp 1040 ------- 1 0.0 3.0 20 36
- 0.23544 2 3 tcp 1040 ------- 1 0.0 3.0 14 25
r 0.23712 2 3 tcp 1040 ------- 1 0.0 3.0 12 23
+ 0.23712 3 2 ack 40 ------- 1 3.0 0.0 12 37
- 0.23712 3 2 ack 40 ------- 1 3.0 0.0 12 37
r 0.2372 3 4 tcp 1040 ------- 2 1.0 4.0 1 13
+ 0.2372 4 3 ack 40 ------- 2 4.0 1.0 1 38
- 0.2372 4 3 ack 40 ------- 2 4.0 1.0 1 38
- 0.23904 0 2 tcp 1040 ------- 1 0.0 3.0 17 32
r 0.23912 3 2 ack 40 ------- 1 3.0 0.0 11 34
+ 0.23912 2 0 ack 40 ------- 1 3.0 0.0 11 34
- 0.23912 2 0 ack 40 ------- 1 3.0 0.0 11 34
r 0.24072 0 2 tcp 1040 ------- 1 0.0 3.0 15 29
+ 0.24072 2 3 tcp 1040 ------- 1 0.0 3.0 15 29
r 0.24112 2 0 ack 40 ------- 1 3.0 0.0 10 31
+ 0.24112 0 2 tcp 1040 ------- 1 0.0 3.0 21 39
+ 0.24112 0 2 tcp 1040 ------- 1 0.0 3.0 22 40
- 0.24376 2 3 tcp 1040 ------- 1 0.0 3.0 15 29
r 0.24544 2 3 tcp 1040 ------- 1 0.0 3.0 13 24
+ 0.24544 3 2 ack 40 ------- 1 3.0 0.0 13 41
- 0.24544 3 2 ack 40 ------- 1 3.0 0.0 13 41
r 0.24552 3 4 tcp 1040 ------- 2 1.0 4.0 2 14
+ 0.24552 4 3 ack 40 ------- 2 4.0 1.0 2 42
- 0.24552 4 3 ack 40 ------- 2 4.0 1.0 2 42
- 0.24736 0 2 tcp 1040 ------- 1 0.0 3.0 18 33
r 0.24744 3 2 ack 40 ------- 1 3.0 0.0 12 37
+ 0.24744 2 0 ack 40 ------- 1 3.0 0.0 12 37
- 0.24744 2 0 ack 40 ------- 1 3.0 0.0 12 37
r 0.24904 0 2 tcp 1040 ------- 1 0.0 3.0 16 30
+ 0.24904 2 3 tcp 1040 ------- 1 0.0 3.0 16 30
r 0.24944 2 0 ack 40 ------- 1 3.0 0.0 11 34
+ 0.24944 0 2 tcp 1040 ------- 1 0.0 3.0 23 43
+ 0.24944 0 2 tcp 1040 ------- 1 0.0 3.0 24 44
- 0.25208 2 3 tcp 1040 ------- 1 0.0 3.0 16 30
r 0.25376 2 3 tcp 1040 ------- 1 0.0 3.0 14 25
+ 0.25376 3 2 ack 40 ------- 1 3.0 0.0 14 45
- 0.25376 3 2 ack 40 ------- 1 3.0 0.0 14 45
- 0.25568 0 2 tcp 1040 ------- 1 0.0 3.0 19 35
r 0.25576 3 2 ack 40 ------- 1 3.0 0.0 13 41
+ 0.25576 2 0 ack 40 ------- 1 3.0 0.0 13 41
- 0.25576 2 0 ack 40 ------- 1 3.0 0.0 13 41
r 0.25736 0 2 tcp 1040 ------- 1 0.0 3.0 17 32
+ 0.25736 2 3 tcp 1040 ------- 1 0.0 3.0 17 32
r 0.25776 2 0 ack 40 ------- 1 3.0 0.0 12 37
+ 0.25776 0 2 tcp 1040 ------- 1 0.0 3.0 25 46
+ 0.25776 0 2 tcp 1040 ------- 1 0.0 3.0 26 47
- 0.2604 2 3 tcp 1040 ------- 1 0.0 3.0 17 32
r 0.26208 2 3 tcp 1040 ------- 1 0.0 3.0 15 29
+ 0.26208 3 2 ack 40 ------- 1 3.0 0.0 15 48
- 0.26208 3 2 ack 40 ------- 1 3.0 0.0 15 48
- 0.264 0 2 tcp 1040 ------- 1 0.0 3.0 20 36
r 0.26408 3 2 ack 40 ------- 1 3.0 0.0 14 45
+ 0.26408 2 0 ack 40 ------- 1 3.0 0.0 14 45
- 0.26408 2 0 ack 40 ------- 1 3.0 0.0 14 45
r 0.26568 0 2 tcp 1040 ------- 1 0.0 3.0 18 33
+ 0.26568 2 3 tcp 1040 ------- 1 0.0 3.0 18 33
r 0.26608 2 0 ack 40 ------- 1 3.0 0.0 13 41
+ 0.26608 0 2 tcp 1040 ------- 1 0.0 3.0 27 49
+ 0.26608 0 2 tcp 1040 ------- 1 0.0 3.0 28 50
- 0.26872 2 3 tcp 1040 ------- 1 0.0 3.0 18 33
r 0.2704 2 3 tcp 1040 ------- 1 0.0 3.0 16 30
+ 0.2704 3 2 ack 40 ------- 1 3.0 0.0 16 51
- 0.2704 3 2 ack 40 ------- 1 3.0 0.0 16 51
- 0.27232 0 2 tcp 1040 ------- 1 0.0 3.0 21 39
r 0.2724 3 2 ack 40 ------- 1 3.0 0.0 15 48
+ 0.2724 2 0 ack 40 ------- 1 3.0 0.0 15 48
- 0.2724 2 0 ack 40 ------- 1 3.0 0.0 15 48
r 0.274 0 2 tcp 1040 ------- 1 0.0 3.0 19 35
+ 0.274 2 3 tcp 1040 ------- 1 0.0 3.0 19 35
r 0.2744 2 0 ack 40 ------- 1 3.0 0.0 14 45
+ 0.2744 0 2 tcp 1040 ------- 1 0.0 3.0 29 52
+ 0.2744 0 2 tcp 1040 ------- 1 0.0 3.0 30 53
- 0.27704 2 3 tcp 1040 ------- 1 0.0 3.0 19 35
r 0.27872 2 3 tcp 1040 ------- 1 0.0 3.0 17 32
+ 0.27872 3 2 ack 40 ------- 1 3.0 0.0 17 54
- 0.27872 3 2 ack 40 ------- 1 3.0 0.0 17 54
- 0.28064 0 2 tcp 1040 ------- 1 0.0 3.0 22 40
r 0.28072 3 2 ack 40 ------- 1 3.0 0.0 16 51
+ 0.28072 2 0 ack 40 ------- 1 3.0 0.0 16 51
- 0.28072 2 0 ack 40 ------- 1 3.0 0.0 16 51
r 0.28232 0 2 tcp 1040 ------- 1 0.0 3.0 20 36
+ 0.28232 2 3 tcp 1040 ------- 1 0.0 3.0 20 36
r 0.28272 2 0 ack 40 ------- 1 3.0 0.0 15 48
+ 0.28272 0 2 tcp 1040 ------- 1 0.0 3.0 31 55
+ 0.28272 0 2 tcp 1040 ------- 1 0.0 3.0 32 56
- 0.28536 2 3 tcp 1040 ------- 1 0.0 3.0 20 36
r 0.28704 2 3 tcp 1040 ------- 1 0.0 3.0 18 33
+ 0.28704 3 2 ack 40 ------- 1 3.0 0.0 18 57
- 0.28704 3 2 ack 40 ------- 1 3.0 0.0 18 57
r 0.28752 4 3 ack 40 ------- 2 4.0 1.0 1 38
+ 0.28752 3 2 ack 40 ------- 2 4.0 1.0 1 38
- 0.28752 3 2 ack 40 ------- 2 4.0 1.0 1 38
- 0.28896 0 2 tcp 1040 ------- 1 0.0 3.0 23 43
r 0.28904 3 2 ack 40 ------- 1 3.0 0.0 17 54
+ 0.28904 2 0 ack 40 ------- 1 3.0 0.0 17 54
- 0.28904 2 0 ack 40 ------- 1 3.0 0.0 17 54
r 0.29064 0 2 tcp 1040 ------- 1 0.0 3.0 21 39
+ 0.29064 2 3 tcp 1040 ------- 1 0.0 3.0 21 39
r 0.29104 2 0 ack 40 ------- 1 3.0 0.0 16 51
+ 0.29104 0 2 tcp 1040 ------- 1 0.0 3.0 33 58
+ 0.29104 0 2 tcp 1040 ------- 1 0.0 3.0 34 59
- 0.29368 2 3 tcp 1040 ------- 1 0.0 3.0 21 39
r 0.29536 2 3 tcp 1040 ------- 1 0.0 3.0 19 35
+ 0.29536 3 2 ack 40 ------- 1 3.0 0.0 19 60
- 0.29536 3 2 ack 40 ------- 1 3.0 0.0 19 60
r 0.29584 4 3 ack 40 ------- 2 4.0 1.0 2 42
+ 0.29584 3 2 ack 40 ------- 2 4.0 1.0 2 42
- 0.29584 3 2 ack 40 ------- 2 4.0 1.0 2 42
- 0.29728 0 2 tcp 1040 ------- 1 0.0 3.0 24 44
r 0.29736 3 2 ack 40 ------- 1 3.0 0.0 18 57
+ 0.29736 2 0 ack 40 ------- 1 3.0 0.0 18 57
- 0.29736 2 0 ack 40 ------- 1 3.0 0.0 18 57
r 0.29784 3 2 ack 40 ------- 2 4.0 1.0 1 38
+ 0.29784 2 1 ack 40 ------- 2 4.0 1.0 1 38
- 0.29784 2 1 ack 40 ------- 2 4.0 1.0 1 38
r 0.29896 0 2 tcp 1040 ------- 1 0.0 3.0 22 40
+ 0.29896 2 3 tcp 1040 ------- 1 0.0 3.0 22 40
r 0.29936 2 0 ack 40 ------- 1 3.0 0.0 17 54
+ 0.29936 0 2 tcp 1040 ------- 1 0.0 3.0 35 61
+ 0.29936 0 2 tcp 1040 ------- 1 0.0 3.0 36 62
- 0.302 2 3 tcp 1040 ------- 1 0.0 3.0 22 40
r 0.30368 2 3 tcp 1040 ------- 1 0.0 3.0 20 36
+ 0.30368 3 2 ack 40 ------- 1 3.0 0.0 20 63
- 0.30368 3 2 ack 40 ------- 1 3.0 0.0 20 63
- 0.3056 0 2 tcp 1040 ------- 1 0.0 3.0 25 46
r 0.30568 3 2 ack 40 ------- 1 3.0 0.0 19 60
+ 0.30568 2 0 ack 40 ------- 1 3.0 0.0 19 60
- 0.30568 2 0 ack 40 ------- 1 3.0 0.0 19 60
r 0.30616 3 2 ack 40 ------- 2 4.0 1.0 2 42
+ 0.30616 2 1 ack 40 ------- 2 4.0 1.0 2 42
- 0.30616 2 1 ack 40 ------- 2 4.0 1.0 2 42
r 0.30728 0 2 tcp 1040 ------- 1 0.0 3.0 23 43
+ 0.30728 2 3 tcp 1040 ------- 1 0.0 3.0 23 43
r 0.30768 2 0 ack 40 ------- 1 3.0 0.0 18 57
+ 0.30768 0 2 tcp 1040 ------- 1 0.0 3.0 37 64
+ 0.30768 0 2 tcp 1040 ------- 1 0.0 3.0 38 65
r 0.30816 2 1 ack 40 ------- 2 4.0 1.0 1 38
+ 0.30816 1 2 tcp 1040 ------- 2 1.0 4.0 3 66
- 0.30816 1 2 tcp 1040 ------- 2 1.0 4.0 3 66
+ 0.30816 1 2 tcp 1040 ------- 2 1.0 4.0 4 67
- 0.31032 2 3 tcp 1040 ------- 1 0.0 3.0 23 43
r 0.312 2 3 tcp 1040 ------- 1 0.0 3.0 21 39
+ 0.312 3 2 ack 40 ------- 1 3.0 0.0 21 68
- 0.312 3 2 ack 40 ------- 1 3.0 0.0 21 68
- 0.31392 0 2 tcp 1040 ------- 1 0.0 3.0 26 47
r 0.314 3 2 ack 40 ------- 1 3.0 0.0 20 63
+ 0.314 2 0 ack 40 ------- 1 3.0 0.0 20 63
- 0.314 2 0 ack 40 ------- 1 3.0 0.0 20 63
r 0.3156 0 2 tcp 1040 ------- 1 0.0 3.0 24 44
+ 0.3156 2 3 tcp 1040 ------- 1 0.0 3.0 24 44
r 0.316 2 0 ack 40 ------- 1 3.0 0.0 19 60
+ 0.316 0 2 tcp 1040 ------- 1 0.0 3.0 39 69
r 0.31648 2 1 ack 40 ------- 2 4.0 1.0 2 42
+ 0.31648 1 2 tcp 1040 ------- 2 1.0 4.0 5 70
+ 0.31648 1 2 tcp 1040 ------- 2 1.0 4.0 6 71
- 0.31648 1 2 tcp 1040 ------- 2 1.0 4.0 4 67
- 0.31864 2 3 tcp 1040 ------- 1 0.0 3.0 24 44
r 0.32032 2 3 tcp 1040 ------- 1 0.0 3.0 22 40
+ 0.32032 3 2 ack 40 ------- 1 3.0 0.0 22 72
- 0.32032 3 2 ack 40 ------- 1 3.0 0.0 22 72
- 0.32224 0 2 tcp 1040 ------- 1 0.0 3.0 27 49
r 0.32232 3 2 ack 40 ------- 1 3.0 0.0 21 68
+ 0.32232 2 0 ack 40 ------- 1 3.0 0.0 21 68
- 0.32232 2 0 ack 40 ------- 1 3.0 0.0 21 68
r 0.32392 0 2 tcp 1040 ------- 1 0.0 3.0 25 46
+ 0.32392 2 3 tcp 1040 ------- 1 0.0 3.0 25 46
r 0.32432 2 0 ack 40 ------- 1 3.0 0.0 20 63
+ 0.32432 0 2 tcp 1040 ------- 1 0.0 3.0 40 73
- 0.3248 1 2 tcp 1040 ------- 2 1.0 4.0 5 70
r 0.32648 1 2 tcp 1040 ------- 2 1.0 4.0 3 66
+ 0.32648 2 3 tcp 1040 ------- 2 1.0 4.0 3 66
- 0.32696 2 3 tcp 1040 ------- 1 0.0 3.0 25 46
r 0.32864 2 3 tcp 1040 ------- 1 0.0 3.0 23 43
+ 0.32864 3 2 ack 40 ------- 1 3.0 0.0 23 74
- 0.32864 3 2 ack 40 ------- 1 3.0 0.0 23 74
- 0.33056 0 2 tcp 1040 ------- 1 0.0 3.0 28 50
r 0.33064 3 2 ack 40 ------- 1 3.0 0.0 22 72
+ 0.33064 2 0 ack 40 ------- 1 3.0 0.0 22 72
- 0.33064 2 0 ack 40 ------- 1 3.0 0.0 22 72
r 0.33224 0 2 tcp 1040 ------- 1 0.0 3.0 26 47
+ 0.33224 2 3 tcp 1040 ------- 1 0.0 3.0 26 47
r 0.33264 2 0 ack 40 ------- 1 3.0 0.0 21 68
+ 0.33264 0 2 tcp 1040 ------- 1 0.0 3.0 41 75
- 0.33312 1 2 tcp 1040 ------- 2 1.0 4.0 6 71
r 0.3348 1 2 tcp 1040 ------- 2 1.0 4.0 4 67
+ 0.3348 2 3 tcp 1040 ------- 2 1.0 4.0 4 67
- 0.33528 2 3 tcp 1040 ------- 2 1.0 4.0 3 66
r 0.33696 2 3 tcp 1040 ------- 1 0.0 3.0 24 44
+ 0.33696 3 2 ack 40 ------- 1 3.0 0.0 24 76
- 0.33696 3 2 ack 40 ------- 1 3.0 0.0 24 76
- 0.33888 0 2 tcp 1040 ------- 1 0.0 3.0 29 52
r 0.33896 3 2 ack 40 ------- 1 3.0 0.0 23 74
+ 0.33896 2 0 ack 40 ------- 1 3.0 0.0 23 74
- 0.33896 2 0 ack 40 ------- 1 3.0 0.0 23 74
r 0.34056 0 2 tcp 1040 ------- 1 0.0 3.0 27 49
+ 0.34056 2 3 tcp 1040 ------- 1 0.0 3.0 27 49
r 0.34096 2 0 ack 40 ------- 1 3.0 0.0 22 72
+ 0.34096 0 2 tcp 1040 ------- 1 0.0 3.0 42 77
r 0.34312 1 2 tcp 1040 ------- 2 1.0 4.0 5 70
+ 0.34312 2 3 tcp 1040 ------- 2 1.0 4.0 5 70
- 0.3436 2 3 tcp 1040 ------- 1 0.0 3.0 26 47
r 0.34528 2 3 tcp 1040 ------- 1 0.0 3.0 25 46
+ 0.34528 3 2 ack 40 ------- 1 3.0 0.0 25 78
- 0.34528 3 2 ack 40 ------- 1 3.0 0.0 25 78
- 0.3472 0 2 tcp 1040 ------- 1 0.0 3.0 30 53
r 0.34728 3 2 ack 40 ------- 1 3.0 0.0 24 76
+ 0.34728 2 0 ack 40 ------- 1 3.0 0.0 24 76
- 0.34728 2 0 ack 40 ------- 1 3.0 0.0 24 76
r 0.34888 0 2 tcp 1040 ------- 1 0.0 3.0 28 50
+ 0.34888 2 3 tcp 1040 ------- 1 0.0 3.0 28 50
r 0.34928 2 0 ack 40 ------- 1 3.0 0.0 23 74
+ 0.34928 0 2 tcp 1040 ------- 1 0.0 3.0 43 79
r 0.35144 1 2 tcp 1040 ------- 2 1.0 4.0 6 71
+ 0.35144 2 3 tcp 1040 ------- 2 1.0 4.0 6 71
- 0.35192 2 3 tcp 1040 ------- 2 1.0 4.0 4 67
r 0.3536 2 3 tcp 1040 ------- 2 1.0 4.0 3 66
+ 0.3536 3 4 tcp 1040 ------- 2 1.0 4.0 3 66
- 0.3536 3 4 tcp 1040 ------- 2 1.0 4.0 3 66
- 0.35552 0 2 tcp 1040 ------- 1 0.0 3.0 31 55
r 0.3556 3 2 ack 40 ------- 1 3.0 0.0 25 78
+ 0.3556 2 0 ack 40 ------- 1 3.0 0.0 25 78
- 0.3556 2 0 ack 40 ------- 1 3.0 0.0 25 78
r 0.3572 0 2 tcp 1040 ------- 1 0.0 3.0 29 52
+ 0.3572 2 3 tcp 1040 ------- 1 0.0 3.0 29 52
r 0.3576 2 0 ack 40 ------- 1 3.0 0.0 24 76
+ 0.3576 0 2 tcp 1040 ------- 1 0.0 3.0 44 80
- 0.36024 2 3 tcp 1040 ------- 1 0.0 3.0 27 49
r 0.36192 2 3 tcp 1040 ------- 1 0.0 3.0 26 47
+ 0.36192 3 2 ack 40 ------- 1 3.0 0.0 26 81
- 0.36192 3 2 ack 40 ------- 1 3.0 0.0 26 81
- 0.36384 0 2 tcp 1040 ------- 1 0.0 3.0 32 56
r 0.36552 0 2 tcp 1040 ------- 1 0.0 3.0 30 53
+ 0.36552 2 3 tcp 1040 ------- 1 0.0 3.0 30 53
r 0.36592 2 0 ack 40 ------- 1 3.0 0.0 25 78
+ 0.36592 0 2 tcp 1040 ------- 1 0.0 3.0 45 82
- 0.36856 2 3 tcp 1040 ------- 2 1.0 4.0 5 70
r 0.37024 2 3 tcp 1040 ------- 2 1.0 4.0 4 67
+ 0.37024 3 4 tcp 1040 ------- 2 1.0 4.0 4 67
- 0.37024 3 4 tcp 1040 ------- 2 1.0 4.0 4 67
- 0.37216 0 2 tcp 1040 ------- 1 0.0 3.0 33 58
r 0.37224 3 2 ack 40 ------- 1 3.0 0.0 26 81
+ 0.37224 2 0 ack 40 ------- 1 3.0 0.0 26 81
- 0.37224 2 0 ack 40 ------- 1 3.0 0.0 26 81
r 0.37384 0 2 tcp 1040 ------- 1 0.0 3.0 31 55
+ 0.37384 2 3 tcp 1040 ------- 1 0.0 3.0 31 55
- 0.37688 2 3 tcp 1040 ------- 1 0.0 3.0 28 50
r 0.37856 2 3 tcp 1040 ------- 1 0.0 3.0 27 49
+ 0.37856 3 2 ack 40 ------- 1 3.0 0.0 27 83
- 0.37856 3 2 ack 40 ------- 1 3.0 0.0 27 83
- 0.38048 0 2 tcp 1040 ------- 1 0.0 3.0 34 59
r 0.38216 0 2 tcp 1040 ------- 1 0.0 3.0 32 56
+ 0.38216 2 3 tcp 1040 ------- 1 0.0 3.0 32 56
r 0.38256 2 0 ack 40 ------- 1 3.0 0.0 26 81
+ 0.38256 0 2 tcp 1040 ------- 1 0.0 3.0 46 84
- 0.3852 2 3 tcp 1040 ------- 2 1.0 4.0 6 71
r 0.38688 2 3 tcp 1040 ------- 2 1.0 4.0 5 70
+ 0.38688 3 4 tcp 1040 ------- 2 1.0 4.0 5 70
- 0.38688 3 4 tcp 1040 ------- 2 1.0 4.0 5 70
- 0.3888 0 2 tcp 1040 ------- 1 0.0 3.0 35 61
r 0.38888 3 2 ack 40 ------- 1 3.0 0.0 27 83
+ 0.38888 2 0 ack 40 ------- 1 3.0 0.0 27 83
- 0.38888 2 0 ack 40 ------- 1 3.0 0.0 27 83
r 0.39048 0 2 tcp 1040 ------- 1 0.0 3.0 33 58
+ 0.39048 2 3 tcp 1040 ------- 1 0.0 3.0 33 58
- 0.39352 2 3 tcp 1040 ------- 1 0.0 3.0 29 52
r 0.3952 2 3 tcp 1040 ------- 1 0.0 3.0 28 50
+ 0.3952 3 2 ack 40 ------- 1 3.0 0.0 28 85
- 0.3952 3 2 ack 40 ------- 1 3.0 0.0 28 85
- 0.39712 0 2 tcp 1040 ------- 1 0.0 3.0 36 62
r 0.3988 0 2 tcp 1040 ------- 1 0.0 3.0 34 59
+ 0.3988 2 3 tcp 1040 ------- 1 0.0 3.0 34 59
r 0.3992 2 0 ack 40 ------- 1 3.0 0.0 27 83
+ 0.3992 0 2 tcp 1040 ------- 1 0.0 3.0 47 86
- 0.40184 2 3 tcp 1040 ------- 1 0.0 3.0 30 53
r 0.40352 2 3 tcp 1040 ------- 2 1.0 4.0 6 71
+ 0.40352 3 4 tcp 1040 ------- 2 1.0 4.0 6 71
- 0.40352 3 4 tcp 1040 ------- 2 1.0 4.0 6 71
- 0.40544 0 2 tcp 1040 ------- 1 0.0 3.0 37 64
r 0.40552 3 2 ack 40 ------- 1 3.0 0.0 28 85
+ 0.40552 2 0 ack 40 ------- 1 3.0 0.0 28 85
- 0.40552 2 0 ack 40 ------- 1 3.0 0.0 28 85
r 0.40712 0 2 tcp 1040 ------- 1 0.0 3.0 35 61
+ 0.40712 2 3 tcp 1040 ------- 1 0.0 3.0 35 61
- 0.41016 2 3 tcp 1040 ------- 1 0.0 3.0 31 55
r 0.41184 2 3 tcp 1040 ------- 1 0.0 3.0 29 52
+ 0.41184 3 2 ack 40 ------- 1 3.0 0.0 29 87
- 0.41184 3 2 ack 40 ------- 1 3.0 0.0 29 87
r 0.41192 3 4 tcp 1040 ------- 2 1.0 4.0 3 66
+ 0.41192 4 3 ack 40 ------- 2 4.0 1.0 3 88
- 0.41192 4 3 ack 40 ------- 2 4.0 1.0 3 88
- 0.41376 0 2 tcp 1040 ------- 1 0.0 3.0 38 65
r 0.41544 0 2 tcp 1040 ------- 1 0.0 3.0 36 62
+ 0.41544 2 3 tcp 1040 ------- 1 0.0 3.0 36 62
r 0.41584 2 0 ack 40 ------- 1 3.0 0.0 28 85
+ 0.41584 0 2 tcp 1040 ------- 1 0.0 3.0 48 89
- 0.41848 2 3 tcp 1040 ------- 1 0.0 3.0 32 56
r 0.42016 2 3 tcp 1040 ------- 1 0.0 3.0 30 53
+ 0.42016 3 2 ack 40 ------- 1 3.0 0.0 30 90
- 0.42016 3 2 ack 40 ------- 1 3.0 0.0 30 90
- 0.42208 0 2 tcp 1040 ------- 1 0.0 3.0 39 69
r 0.42216 3 2 ack 40 ------- 1 3.0 0.0 29 87
+ 0.42216 2 0 ack 40 ------- 1 3.0 0.0 29 87
- 0.42216 2 0 ack 40 ------- 1 3.0 0.0 29 87
r 0.42376 0 2 tcp 1040 ------- 1 0.0 3.0 37 64
+ 0.42376 2 3 tcp 1040 ------- 1 0.0 3.0 37 64
- 0.4268 2 3 tcp 1040 ------- 1 0.0 3.0 33 58
r 0.42848 2 3 tcp 1040 ------- 1 0.0 3.0 31 55
+ 0.42848 3 2 ack 40 ------- 1 3.0 0.0 31 91
- 0.42848 3 2 ack 40 ------- 1 3.0 0.0 31 91
r 0.42856 3 4 tcp 1040 ------- 2 1.0 4.0 4 67
+ 0.42856 4 3 ack 40 ------- 2 4.0 1.0 4 92
- 0.42856 4 3 ack 40 ------- 2 4.0 1.0 4 92
- 0.4304 0 2 tcp 1040 ------- 1 0.0 3.0 40 73
r 0.43048 3 2 ack 40 ------- 1 3.0 0.0 30 90
+ 0.43048 2 0 ack 40 ------- 1 3.0 0.0 30 90
- 0.43048 2 0 ack 40 ------- 1 3.0 0.0 30 90
r 0.43208 0 2 tcp 1040 ------- 1 0.0 3.0 38 65
+ 0.43208 2 3 tcp 1040 ------- 1 0.0 3.0 38 65
r 0.43248 2 0 ack 40 ------- 1 3.0 0.0 29 87
+ 0.43248 0 2 tcp 1040 ------- 1 0.0 3.0 49 93
- 0.43512 2 3 tcp 1040 ------- 1 0.0 3.0 34 59
r 0.4368 2 3 tcp 1040 ------- 1 0.0 3.0 32 56
+ 0.4368 3 2 ack 40 ------- 1 3.0 0.0 32 94
- 0.4368 3 2 ack 40 ------- 1 3.0 0.0 32 94
- 0.43872 0 2 tcp 1040 ------- 1 0.0 3.0 41 75
r 0.4388 3 2 ack 40 ------- 1 3.0 0.0 31 91
+ 0.4388 2 0 ack 40 ------- 1 3.0 0.0 31 91
- 0.4388 2 0 ack 40 ------- 1 3.0 0.0 31 91
r 0.4404 0 2 tcp 1040 ------- 1 0.0 3.0 39 69
+ 0.4404 2 3 tcp 1040 ------- 1 0.0 3.0 39 69
r 0.4408 2 0 ack 40 ------- 1 3.0 0.0 30 90
+ 0.4408 0 2 tcp 1040 ------- 1 0.0 3.0 50 95
- 0.44344 2 3 tcp 1040 ------- 1 0.0 3.0 35 61
r 0.44512 2 3 tcp 1040 ------- 1 0.0 3.0 33 58
+ 0.44512 3 2 ack 40 ------- 1 3.0 0.0 33 96
- 0.44512 3 2 ack 40 ------- 1 3.0 0.0 33 96
r 0.4452 3 4 tcp 1040 ------- 2 1.0 4.0 5 70
+ 0.4452 4 3 ack 40 ------- 2 4.0 1.0 5 97
- 0.4452 4 3 ack 40 ------- 2 4.0 1.0 5 97
- 0.44704 0 2 tcp 1040 ------- 1 0.0 3.0 42 77
r 0.44712 3 2 ack 40 ------- 1 3.0 0.0 32 94
+ 0.44712 2 0 ack 40 ------- 1 3.0 0.0 32 94
- 0.44712 2 0 ack 40 ------- 1 3.0 0.0 32 94
r 0.44872 0 2 tcp 1040 ------- 1 0.0 3.0 40 73
+ 0.44872 2 3 tcp 1040 ------- 1 0.0 3.0 40 73
r 0.44912 2 0 ack 40 ------- 1 3.0 0.0 31 91
+ 0.44912 0 2 tcp 1040 ------- 1 0.0 3.0 51 98
- 0.45176 2 3 tcp 1040 ------- 1 0.0 3.0 36 62
r 0.45344 2 3 tcp 1040 ------- 1 0.0 3.0 34 59
+ 0.45344 3 2 ack 40 ------- 1 3.0 0.0 34 99
- 0.45344 3 2 ack 40 ------- 1 3.0 0.0 34 99
- 0.45536 0 2 tcp 1040 ------- 1 0.0 3.0 43 79
r 0.45544 3 2 ack 40 ------- 1 3.0 0.0 33 96
+ 0.45544 2 0 ack 40 ------- 1 3.0 0.0 33 96
- 0.45544 2 0 ack 40 ------- 1 3.0 0.0 33 96
r 0.45704 0 2 tcp 1040 ------- 1 0.0 3.0 41 75
+ 0.45704 2 3 tcp 1040 ------- 1 0.0 3.0 41 75
r 0.45744 2 0 ack 40 ------- 1 3.0 0.0 32 94
+ 0.45744 0 2 tcp 1040 ------- 1 0.0 3.0 52 100
- 0.46008 2 3 tcp 1040 ------- 1 0.0 3.0 37 64
r 0.46176 2 3 tcp 1040 ------- 1 0.0 3.0 35 61
+ 0.46176 3 2 ack 40 ------- 1 3.0 0.0 35 101
- 0.46176 3 2 ack 40 ------- 1 3.0 0.0 35 101
r 0.46184 3 4 tcp 1040 ------- 2 1.0 4.0 6 71
+ 0.46184 4 3 ack 40 ------- 2 4.0 1.0 6 102
- 0.46184 4 3 ack 40 ------- 2 4.0 1.0 6 102
r 0.46224 4 3 ack 40 ------- 2 4.0 1.0 3 88
+ 0.46224 3 2 ack 40 ------- 2 4.0 1.0 3 88
- 0.46224 3 2 ack 40 ------- 2 4.0 1.0 3 88
- 0.46368 0 2 tcp 1040 ------- 1 0.0 3.0 44 80
r 0.46376 3 2 ack 40 ------- 1 3.0 0.0 34 99
+ 0.46376 2 0 ack 40 ------- 1 3.0 0.0 34 99
- 0.46376 2 0 ack 40 ------- 1 3.0 0.0 34 99
r 0.46536 0 2 tcp 1040 ------- 1 0.0 3.0 42 77
+ 0.46536 2 3 tcp 1040 ------- 1 0.0 3.0 42 77
r 0.46576 2 0 ack 40 ------- 1 3.0 0.0 33 96
+ 0.46576 0 2 tcp 1040 ------- 1 0.0 3.0 53 103
- 0.4684 2 3 tcp 1040 ------- 1 0.0 3.0 38 65
r 0.47008 2 3 tcp 1040 ------- 1 0.0 3.0 36 62
+ 0.47008 3 2 ack 40 ------- 1 3.0 0.0 36 104
- 0.47008 3 2 ack 40 ------- 1 3.0 0.0 36 104
- 0.472 0 2 tcp 1040 ------- 1 0.0 3.0 45 82
r 0.47208 3 2 ack 40 ------- 1 3.0 0.0 35 101
+ 0.47208 2 0 ack 40 ------- 1 3.0 0.0 35 101
- 0.47208 2 0 ack 40 ------- 1 3.0 0.0 35 101
r 0.47256 3 2 ack 40 ------- 2 4.0 1.0 3 88
+ 0.47256 2 1 ack 40 ------- 2 4.0 1.0 3 88
- 0.47256 2 1 ack 40 ------- 2 4.0 1.0 3 88
r 0.47368 0 2 tcp 1040 ------- 1 0.0 3.0 43 79
+ 0.47368 2 3 tcp 1040 ------- 1 0.0 3.0 43 79
r 0.47408 2 0 ack 40 ------- 1 3.0 0.0 34 99
+ 0.47408 0 2 tcp 1040 ------- 1 0.0 3.0 54 105
- 0.47672 2 3 tcp 1040 ------- 1 0.0 3.0 39 69
r 0.4784 2 3 tcp 1040 ------- 1 0.0 3.0 37 64
+ 0.4784 3 2 ack 40 ------- 1 3.0 0.0 37 106
- 0.4784 3 2 ack 40 ------- 1 3.0 0.0 37 106
r 0.47888 4 3 ack 40 ------- 2 4.0 1.0 4 92
+ 0.47888 3 2 ack 40 ------- 2 4.0 1.0 4 92
- 0.47888 3 2 ack 40 ------- 2 4.0 1.0 4 92
- 0.48032 0 2 tcp 1040 ------- 1 0.0 3.0 46 84
r 0.4804 3 2 ack 40 ------- 1 3.0 0.0 36 104
+ 0.4804 2 0 ack 40 ------- 1 3.0 0.0 36 104
- 0.4804 2 0 ack 40 ------- 1 3.0 0.0 36 104
r 0.482 0 2 tcp 1040 ------- 1 0.0 3.0 44 80
+ 0.482 2 3 tcp 1040 ------- 1 0.0 3.0 44 80
r 0.4824 2 0 ack 40 ------- 1 3.0 0.0 35 101
+ 0.4824 0 2 tcp 1040 ------- 1 0.0 3.0 55 107
r 0.48288 2 1 ack 40 ------- 2 4.0 1.0 3 88
+ 0.48288 1 2 tcp 1040 ------- 2 1.0 4.0 7 108
- 0.48288 1 2 tcp 1040 ------- 2 1.0 4.0 7 108
+ 0.48288 1 2 tcp 1040 ------- 2 1.0 4.0 8 109
- 0.48504 2 3 tcp 1040 ------- 1 0.0 3.0 40 73
r 0.48672 2 3 tcp 1040 ------- 1 0.0 3.0 38 65
+ 0.48672 3 2 ack 40 ------- 1 3.0 0.0 38 110
- 0.48672 3 2 ack 40 ------- 1 3.0 0.0 38 110
- 0.48864 0 2 tcp 1040 ------- 1 0.0 3.0 47 86
r 0.48872 3 2 ack 40 ------- 1 3.0 0.0 37 106
+ 0.48872 2 0 ack 40 ------- 1 3.0 0.0 37 106
- 0.48872 2 0 ack 40 ------- 1 3.0 0.0 37 106
r 0.4892 3 2 ack 40 ------- 2 4.0 1.0 4 92
+ 0.4892 2 1 ack 40 ------- 2 4.0 1.0 4 92
- 0.4892 2 1 ack 40 ------- 2 4.0 1.0 4 92
r 0.49032 0 2 tcp 1040 ------- 1 0.0 3.0 45 82
+ 0.49032 2 3 tcp 1040 ------- 1 0.0 3.0 45 82
r 0.49072 2 0 ack 40 ------- 1 3.0 0.0 36 104
+ 0.49072 0 2 tcp 1040 ------- 1 0.0 3.0 56 111
- 0.4912 1 2 tcp 1040 ------- 2 1.0 4.0 8 109
- 0.49336 2 3 tcp 1040 ------- 1 0.0 3.0 41 75
r 0.49504 2 3 tcp 1040 ------- 1 0.0 3.0 39 69
+ 0.49504 3 2 ack 40 ------- 1 3.0 0.0 39 112
- 0.49504 3 2 ack 40 ------- 1 3.0 0.0 39 112
r 0.49552 4 3 ack 40 ------- 2 4.0 1.0 5 97
+ 0.49552 3 2 ack 40 ------- 2 4.0 1.0 5 97
- 0.49552 3 2 ack 40 ------- 2 4.0 1.0 5 97
- 0.49696 0 2 tcp 1040 ------- 1 0.0 3.0 48 89
r 0.49704 3 2 ack 40 ------- 1 3.0 0.0 38 110
+ 0.49704 2 0 ack 40 ------- 1 3.0 0.0 38 110
- 0.49704 2 0 ack 40 ------- 1 3.0 0.0 38 110
r 0.49864 0 2 tcp 1040 ------- 1 0.0 3.0 46 84
+ 0.49864 2 3 tcp 1040 ------- 1 0.0 3.0 46 84
r 0.49904 2 0 ack 40 ------- 1 3.0 0.0 37 106
+ 0.49904 0 2 tcp 1040 ------- 1 0.0 3.0 57 113
r 0.49952 2 1 ack 40 ------- 2 4.0 1.0 4 92
+ 0.49952 1 2 tcp 1040 ------- 2 1.0 4.0 9 114
+ 0.49952 1 2 tcp 1040 ------- 2 1.0 4.0 10 115
- 0.49952 1 2 tcp 1040 ------- 2 1.0 4.0 9 114
r 0.5012 1 2 tcp 1040 ------- 2 1.0 4.0 7 108
+ 0.5012 2 3 tcp 1040 ------- 2 1.0 4.0 7 108
- 0.50168 2 3 tcp 1040 ------- 1 0.0 3.0 42 77
r 0.50336 2 3 tcp 1040 ------- 1 0.0 3.0 40 73
+ 0.50336 3 2 ack 40 ------- 1 3.0 0.0 40 116
- 0.50336 3 2 ack 40 ------- 1 3.0 0.0 40 116
- 0.50528 0 2 tcp 1040 ------- 1 0.0 3.0 49 93
r 0.50536 3 2 ack 40 ------- 1 3.0 0.0 39 112
+ 0.50536 2 0 ack 40 ------- 1 3.0 0.0 39 112
- 0.50536 2 0 ack 40 ------- 1 3.0 0.0 39 112
r 0.50584 3 2 ack 40 ------- 2 4.0 1.0 5 97
+ 0.50584 2 1 ack 40 ------- 2 4.0 1.0 5 97
- 0.50584 2 1 ack 40 ------- 2 4.0 1.0 5 97
r 0.50696 0 2 tcp 1040 ------- 1 0.0 3.0 47 86
+ 0.50696 2 3 tcp 1040 ------- 1 0.0 3.0 47 86
r 0.50736 2 0 ack 40 ------- 1 3.0 0.0 38 110
+ 0.50736 0 2 tcp 1040 ------- 1 0.0 3.0 58 117
- 0.50784 1 2 tcp 1040 ------- 2 1.0 4.0 10 115
r 0.50952 1 2 tcp 1040 ------- 2 1.0 4.0 8 109
+ 0.50952 2 3 tcp 1040 ------- 2 1.0 4.0 8 109